<UPF version="2.0.1">
  <PP_INFO>
    Generated by new atomic code, or converted to UPF format
    Author: 
    Generation date: 
    Pseudopotential type: NC
    Element: Al
    Functional:  SLA  PW   SCAN SCAN
    Suggested minimum cutoff for wavefunctions:   0. Ry
    Suggested minimum cutoff for charge density:   0. Ry
    The Pseudo was generated with a Non-Relativistic Calculation
    L component and cutoff radius for Local Potential:  0   0.0000
    Valence configuration: 
    nl pn  l   occ       Rcut    Rcut US       E pseu
    0S  1  0  2.00      0.000      0.000     0.000000
    0P  2  1  1.00      0.000      0.000     0.000000
    0D  3  2  0.00      0.000      0.000     0.000000
    Generation configuration: not available.
  </PP_INFO>
    <!-- END OF HUMAN READABLE SECTION -->
  <PP_HEADER generated="Generated by new atomic code, or converted to UPF format" author="" date="" comment="" element="Al" pseudo_type="NC" relativistic="no" is_ultrasoft="false" is_paw="false" is_coulomb="false" has_so="false" has_wfc="false" has_gipaw="false" paw_as_gipaw="false" core_correction="false" functional=" SLA  PW   SCAN SCAN" z_valence="3.00000000000000" total_psenergy="0.000000000000000E+000" wfc_cutoff="0.000000000000000E+000" rho_cutoff="0.000000000000000E+000" l_max="1" l_max_rho="0" l_local="0" mesh_size="1467" number_of_wfc="3" number_of_proj="2"/>
  <PP_MESH mesh="1467" dx="9.999999999999178E-003" xmin="-7.99999999999855" rmax="60.0423797790000" zmesh="13.0000000000000">
    <PP_R>
   2.580481753100000E-05   2.606416025870000E-05   2.632610942420000E-05
   2.659069122260000E-05   2.685793211230000E-05   2.712785881760000E-05
   2.740049833130000E-05   2.767587791770000E-05   2.795402511500000E-05
   2.823496773810000E-05   2.851873388150000E-05   2.880535192200000E-05
   2.909485052170000E-05   2.938725863080000E-05   2.968260549020000E-05
   2.998092063480000E-05   3.028223389650000E-05   3.058657540690000E-05
   3.089397560030000E-05   3.120446521690000E-05   3.151807530610000E-05
   3.183483722910000E-05   3.215478266240000E-05   3.247794360070000E-05
   3.280435236040000E-05   3.313404158270000E-05   3.346704423680000E-05
   3.380339362320000E-05   3.414312337710000E-05   3.448626747190000E-05
   3.483286022210000E-05   3.518293628730000E-05   3.553653067550000E-05
   3.589367874640000E-05   3.625441621510000E-05   3.661877915560000E-05
   3.698680400450000E-05   3.735852756460000E-05   3.773398700870000E-05
   3.811321988290000E-05   3.849626411080000E-05   3.888315799720000E-05
   3.927394023190000E-05   3.966864989330000E-05   4.006732645270000E-05
   4.047000977820000E-05   4.087674013830000E-05   4.128755820660000E-05
   4.170250506500000E-05   4.212162220880000E-05   4.254495154980000E-05
   4.297253542150000E-05   4.340441658250000E-05   4.384063822140000E-05
   4.428124396060000E-05   4.472627786110000E-05   4.517578442660000E-05
   4.562980860830000E-05   4.608839580880000E-05   4.655159188730000E-05
   4.701944316380000E-05   4.749199642380000E-05   4.796929892300000E-05
   4.845139839210000E-05   4.893834304140000E-05   4.943018156580000E-05
   4.992696314950000E-05   5.042873747120000E-05   5.093555470860000E-05
   5.144746554400000E-05   5.196452116880000E-05   5.248677328900000E-05
   5.301427413020000E-05   5.354707644310000E-05   5.408523350820000E-05
   5.462879914170000E-05   5.517782770070000E-05   5.573237408850000E-05
   5.629249376000000E-05   5.685824272790000E-05   5.742967756740000E-05
   5.800685542260000E-05   5.858983401160000E-05   5.917867163290000E-05
   5.977342717060000E-05   6.037416010080000E-05   6.098093049740000E-05
   6.159379903790001E-05   6.221282700950001E-05   6.283807631580000E-05
   6.346960948200000E-05   6.410748966210000E-05   6.475178064450000E-05
   6.540254685900000E-05   6.605985338260000E-05   6.672376594670000E-05
   6.739435094290000E-05   6.807167543040000E-05   6.875580714220000E-05
   6.944681449199999E-05   7.014476658110000E-05   7.084973320529999E-05
   7.156178486190000E-05   7.228099275660000E-05   7.300742881080001E-05
   7.374116566880001E-05   7.448227670470000E-05   7.523083603040000E-05
   7.598691850240001E-05   7.675059972960000E-05   7.752195608069999E-05
   7.830106469200000E-05   7.908800347500000E-05   7.988285112430000E-05
   8.068568712520000E-05   8.149659176210000E-05   8.231564612610000E-05
   8.314293212330000E-05   8.397853248300000E-05   8.482253076599999E-05
   8.567501137270000E-05   8.653605955190000E-05   8.740576140920001E-05
   8.828420391550000E-05   8.917147491570000E-05   9.006766313780001E-05
   9.097285820120000E-05   9.188715062620000E-05   9.281063184290000E-05
   9.374339420010000E-05   9.468553097490000E-05   9.563713638160000E-05
   9.659830558170000E-05   9.756913469290000E-05   9.854972079880000E-05
   9.954016195890000E-05   1.005405572180000E-04   1.015510066170000E-04
   1.025716112010000E-04   1.036024730320000E-04   1.046436951960000E-04
   1.056953818170000E-04   1.067576380640000E-04   1.078305701640000E-04
   1.089142854110000E-04   1.100088921780000E-04   1.111144999250000E-04
   1.122312192140000E-04   1.133591617200000E-04   1.144984402350000E-04
   1.156491686910000E-04   1.168114621590000E-04   1.179854368710000E-04
   1.191712102250000E-04   1.203689008000000E-04   1.215786283640000E-04
   1.228005138930000E-04   1.240346795760000E-04   1.252812488300000E-04
   1.265403463130000E-04   1.278120979360000E-04   1.290966308760000E-04
   1.303940735860000E-04   1.317045558130000E-04   1.330282086040000E-04
   1.343651643280000E-04   1.357155566800000E-04   1.370795207000000E-04
   1.384571927870000E-04   1.398487107080000E-04   1.412542136180000E-04
   1.426738420660000E-04   1.441077380170000E-04   1.455560448620000E-04
   1.470189074330000E-04   1.484964720180000E-04   1.499888863730000E-04
   1.514962997420000E-04   1.530188628670000E-04   1.545567280050000E-04
   1.561100489460000E-04   1.576789810210000E-04   1.592636811260000E-04
   1.608643077320000E-04   1.624810209030000E-04   1.641139823110000E-04
   1.657633552540000E-04   1.674293046700000E-04   1.691119971570000E-04
   1.708116009840000E-04   1.725282861140000E-04   1.742622242160000E-04
   1.760135886860000E-04   1.777825546620000E-04   1.795692990410000E-04
   1.813740004990000E-04   1.831968395090000E-04   1.850379983550000E-04
   1.868976611560000E-04   1.887760138780000E-04   1.906732443590000E-04
   1.925895423230000E-04   1.945250994020000E-04   1.964801091530000E-04
   1.984547670790000E-04   2.004492706470000E-04   2.024638193090000E-04
   2.044986145210000E-04   2.065538597660000E-04   2.086297605680000E-04
   2.107265245210000E-04   2.128443613010000E-04   2.149834826950000E-04
   2.171441026170000E-04   2.193264371290000E-04   2.215307044680000E-04
   2.237571250630000E-04   2.260059215560000E-04   2.282773188290000E-04
   2.305715440250000E-04   2.328888265670000E-04   2.352293981860000E-04
   2.375934929410000E-04   2.399813472430000E-04   2.423931998800000E-04
   2.448292920390000E-04   2.472898673310000E-04   2.497751718160000E-04
   2.522854540260000E-04   2.548209649920000E-04   2.573819582670000E-04
   2.599686899520000E-04   2.625814187230000E-04   2.652204058540000E-04
   2.678859152470000E-04   2.705782134550000E-04   2.732975697090000E-04
   2.760442559490000E-04   2.788185468440000E-04   2.816207198250000E-04
   2.844510551140000E-04   2.873098357450000E-04   2.901973475990000E-04
   2.931138794300000E-04   2.960597228930000E-04   2.990351725750000E-04
   3.020405260240000E-04   3.050760837760000E-04   3.081421493920000E-04
   3.112390294790000E-04   3.143670337280000E-04   3.175264749430000E-04
   3.207176690700000E-04   3.239409352310000E-04   3.271965957550000E-04
   3.304849762120000E-04   3.338064054410000E-04   3.371612155900000E-04
   3.405497421410000E-04   3.439723239500000E-04   3.474293032780000E-04
   3.509210258260000E-04   3.544478407690000E-04   3.580101007910000E-04
   3.616081621220000E-04   3.652423845700000E-04   3.689131315610000E-04
   3.726207701730000E-04   3.763656711720000E-04   3.801482090520000E-04
   3.839687620700000E-04   3.878277122840000E-04   3.917254455920000E-04
   3.956623517720000E-04   3.996388245160000E-04   4.036552614750000E-04
   4.077120642980000E-04   4.118096386660000E-04   4.159483943420000E-04
   4.201287452030000E-04   4.243511092890000E-04   4.286159088400000E-04
   4.329235703390000E-04   4.372745245550000E-04   4.416692065890000E-04
   4.461080559110000E-04   4.505915164100000E-04   4.551200364370000E-04
   4.596940688470000E-04   4.643140710460000E-04   4.689805050400000E-04
   4.736938374750000E-04   4.784545396880000E-04   4.832630877540000E-04
   4.881199625310000E-04   4.930256497120000E-04   4.979806398680000E-04
   5.029854285040000E-04   5.080405161010000E-04   5.131464081730000E-04
   5.183036153140000E-04   5.235126532490000E-04   5.287740428840000E-04
   5.340883103650000E-04   5.394559871220000E-04   5.448776099270000E-04
   5.503537209470000E-04   5.558848677980000E-04   5.614716035990000E-04
   5.671144870280000E-04   5.728140823790000E-04   5.785709596150000E-04
   5.843856944290000E-04   5.902588683000000E-04   5.961910685490000E-04
   6.021828884020000E-04   6.082349270460000E-04   6.143477896890000E-04
   6.205220876230000E-04   6.267584382830000E-04   6.330574653090000E-04
   6.394197986090000E-04   6.458460744220000E-04   6.523369353810000E-04
   6.588930305770000E-04   6.655150156250000E-04   6.722035527290000E-04
   6.789593107480000E-04   6.857829652650000E-04   6.926751986490000E-04
   6.996367001300000E-04   7.066681658650000E-04   7.137702990050000E-04
   7.209438097700000E-04   7.281894155160000E-04   7.355078408110000E-04
   7.428998175030000E-04   7.503660847960000E-04   7.579073893220000E-04
   7.655244852190000E-04   7.732181342030001E-04   7.809891056440000E-04
   7.888381766460000E-04   7.967661321240000E-04   8.047737648790000E-04
   8.128618756810001E-04   8.210312733480000E-04   8.292827748260000E-04
   8.376172052730000E-04   8.460353981390000E-04   8.545381952490000E-04
   8.631264468910000E-04   8.718010118970001E-04   8.805627577310000E-04
   8.894125605750000E-04   8.983513054150000E-04   9.073798861349999E-04
   9.164992055990000E-04   9.257101757480000E-04   9.350137176860000E-04
   9.444107617740000E-04   9.539022477260000E-04   9.634891246980000E-04
   9.731723513850000E-04   9.829528961179999E-04   9.928317369600000E-04
   1.002809861800000E-03   1.012888268470000E-03   1.023067964800000E-03
   1.033349968790000E-03   1.043735308630000E-03   1.054225022870000E-03
   1.064820160500000E-03   1.075521781030000E-03   1.086330954630000E-03
   1.097248762230000E-03   1.108276295620000E-03   1.119414657570000E-03
   1.130664961920000E-03   1.142028333700000E-03   1.153505909270000E-03
   1.165098836390000E-03   1.176808274360000E-03   1.188635394150000E-03
   1.200581378460000E-03   1.212647421910000E-03   1.224834731120000E-03
   1.237144524810000E-03   1.249578034000000E-03   1.262136502020000E-03
   1.274821184750000E-03   1.287633350660000E-03   1.300574280980000E-03
   1.313645269810000E-03   1.326847624260000E-03   1.340182664580000E-03
   1.353651724280000E-03   1.367256150280000E-03   1.380997303040000E-03
   1.394876556680000E-03   1.408895299130000E-03   1.423054932290000E-03
   1.437356872130000E-03   1.451802548860000E-03   1.466393407050000E-03
   1.481130905800000E-03   1.496016518880000E-03   1.511051734850000E-03
   1.526238057260000E-03   1.541577004740000E-03   1.557070111220000E-03
   1.572718926000000E-03   1.588525013980000E-03   1.604489955790000E-03
   1.620615347930000E-03   1.636902802950000E-03   1.653353949620000E-03
   1.669970433070000E-03   1.686753914940000E-03   1.703706073620000E-03
   1.720828604320000E-03   1.738123219320000E-03   1.755591648080000E-03
   1.773235637480000E-03   1.791056951920000E-03   1.809057373540000E-03
   1.827238702410000E-03   1.845602756670000E-03   1.864151372750000E-03
   1.882886405510000E-03   1.901809728490000E-03   1.920923234020000E-03
   1.940228833480000E-03   1.959728457440000E-03   1.979424055870000E-03
   1.999317598370000E-03   2.019411074280000E-03   2.039706492990000E-03
   2.060205884050000E-03   2.080911297410000E-03   2.101824803640000E-03
   2.122948494100000E-03   2.144284481170000E-03   2.165834898480000E-03
   2.187601901090000E-03   2.209587665710000E-03   2.231794390940000E-03
   2.254224297460000E-03   2.276879628300000E-03   2.299762648990000E-03
   2.322875647870000E-03   2.346220936250000E-03   2.369800848670000E-03
   2.393617743160000E-03   2.417674001410000E-03   2.441972029080000E-03
   2.466514255990000E-03   2.491303136380000E-03   2.516341149160000E-03
   2.541630798150000E-03   2.567174612330000E-03   2.592975146120000E-03
   2.619034979580000E-03   2.645356718730000E-03   2.671942995750000E-03
   2.698796469300000E-03   2.725919824740000E-03   2.753315774440000E-03
   2.780987058000000E-03   2.808936442600000E-03   2.837166723170000E-03
   2.865680722790000E-03   2.894481292860000E-03   2.923571313470000E-03
   2.952953693660000E-03   2.982631371670000E-03   3.012607315310000E-03
   3.042884522180000E-03   3.073466020050000E-03   3.104354867080000E-03
   3.135554152180000E-03   3.167066995310000E-03   3.198896547780000E-03
   3.231045992570000E-03   3.263518544650000E-03   3.296317451310000E-03
   3.329445992460000E-03   3.362907480980000E-03   3.396705263050000E-03
   3.430842718480000E-03   3.465323261040000E-03   3.500150338820000E-03
   3.535327434540000E-03   3.570858065960000E-03   3.606745786150000E-03
   3.642994183930000E-03   3.679606884170000E-03   3.716587548160000E-03
   3.753939874000000E-03   3.791667596960000E-03   3.829774489840000E-03
   3.868264363350000E-03   3.907141066530000E-03   3.946408487070000E-03
   3.986070551750000E-03   4.026131226800000E-03   4.066594518330000E-03
   4.107464472710000E-03   4.148745176950000E-03   4.190440759170000E-03
   4.232555388950000E-03   4.275093277810000E-03   4.318058679550000E-03
   4.361455890760000E-03   4.405289251190000E-03   4.449563144220000E-03
   4.494281997270000E-03   4.539450282270000E-03   4.585072516070000E-03
   4.631153260950000E-03   4.677697125020000E-03   4.724708762690000E-03
   4.772192875180000E-03   4.820154210930000E-03   4.868597566130000E-03
   4.917527785130000E-03   4.966949761010000E-03   5.016868436010000E-03
   5.067288802030000E-03   5.118215901160000E-03   5.169654826130000E-03
   5.221610720900000E-03   5.274088781100000E-03   5.327094254570000E-03
   5.380632441900000E-03   5.434708696960000E-03   5.489328427410000E-03
   5.544497095290000E-03   5.600220217500000E-03   5.656503366390000E-03
   5.713352170330000E-03   5.770772314260000E-03   5.828769540220000E-03
   5.887349647990000E-03   5.946518495640000E-03   6.006282000090000E-03
   6.066646137740000E-03   6.127616945070000E-03   6.189200519190000E-03
   6.251403018530000E-03   6.314230663380000E-03   6.377689736550000E-03
   6.441786584020000E-03   6.506527615500000E-03   6.571919305180000E-03
   6.637968192260000E-03   6.704680881690000E-03   6.772064044800000E-03
   6.840124419950000E-03   6.908868813250000E-03   6.978304099190000E-03
   7.048437221350000E-03   7.119275193100000E-03   7.190825098310000E-03
   7.263094092020000E-03   7.336089401200000E-03   7.409818325420000E-03
   7.484288237660000E-03   7.559506584950000E-03   7.635480889200000E-03
   7.712218747910000E-03   7.789727834910000E-03   7.868015901200001E-03
   7.947090775619999E-03   8.026960365749999E-03   8.107632658599999E-03
   8.189115721479999E-03   8.271417702750000E-03   8.354546832689999E-03
   8.438511424270000E-03   8.523319874030001E-03   8.608980662870001E-03
   8.695502356960001E-03   8.782893608530001E-03   8.871163156769999E-03
   8.960319828730001E-03   9.050372540140000E-03   9.141330296340001E-03
   9.233202193190000E-03   9.325997417950000E-03   9.419725250230000E-03
   9.514395062880000E-03   9.610016322970000E-03   9.706598592700000E-03
   9.804151530370000E-03   9.902684891370001E-03   1.000220852910000E-02
   1.010273239600000E-02   1.020426654460000E-02   1.030682112840000E-02
   1.041040640280000E-02   1.051503272660000E-02   1.062071056240000E-02
   1.072745047810000E-02   1.083526314780000E-02   1.094415935280000E-02
   1.105414998290000E-02   1.116524603720000E-02   1.127745862540000E-02
   1.139079896890000E-02   1.150527840170000E-02   1.162090837200000E-02
   1.173770044280000E-02   1.185566629350000E-02   1.197481772060000E-02
   1.209516663950000E-02   1.221672508510000E-02   1.233950521350000E-02
   1.246351930260000E-02   1.258877975410000E-02   1.271529909400000E-02
   1.284308997440000E-02   1.297216517450000E-02   1.310253760200000E-02
   1.323422029410000E-02   1.336722641930000E-02   1.350156927820000E-02
   1.363726230540000E-02   1.377431907010000E-02   1.391275327820000E-02
   1.405257877330000E-02   1.419380953790000E-02   1.433645969530000E-02
   1.448054351070000E-02   1.462607539240000E-02   1.477306989390000E-02
   1.492154171470000E-02   1.507150570210000E-02   1.522297685260000E-02
   1.537597031350000E-02   1.553050138420000E-02   1.568658551800000E-02
   1.584423832350000E-02   1.600347556590000E-02   1.616431316930000E-02
   1.632676721740000E-02   1.649085395590000E-02   1.665658979350000E-02
   1.682399130400000E-02   1.699307522760000E-02   1.716385847300000E-02
   1.733635811840000E-02   1.751059141410000E-02   1.768657578360000E-02
   1.786432882540000E-02   1.804386831490000E-02   1.822521220630000E-02
   1.840837863410000E-02   1.859338591520000E-02   1.878025255030000E-02
   1.896899722630000E-02   1.915963881780000E-02   1.935219638920000E-02
   1.954668919640000E-02   1.974313668870000E-02   1.994155851120000E-02
   2.014197450620000E-02   2.034440471540000E-02   2.054886938200000E-02
   2.075538895270000E-02   2.096398407950000E-02   2.117467562230000E-02
   2.138748465020000E-02   2.160243244450000E-02   2.181954050000000E-02
   2.203883052770000E-02   2.226032445690000E-02   2.248404443700000E-02
   2.271001284030000E-02   2.293825226380000E-02   2.316878553170000E-02
   2.340163569740000E-02   2.363682604620000E-02   2.387438009730000E-02
   2.411432160640000E-02   2.435667456760000E-02   2.460146321660000E-02
   2.484871203250000E-02   2.509844574020000E-02   2.535068931350000E-02
   2.560546797680000E-02   2.586280720820000E-02   2.612273274190000E-02
   2.638527057070000E-02   2.665044694850000E-02   2.691828839320000E-02
   2.718882168910000E-02   2.746207388990000E-02   2.773807232100000E-02
   2.801684458240000E-02   2.829841855160000E-02   2.858282238630000E-02
   2.887008452700000E-02   2.916023370030000E-02   2.945329892120000E-02
   2.974930949650000E-02   3.004829502760000E-02   3.035028541320000E-02
   3.065531085270000E-02   3.096340184870000E-02   3.127458921080000E-02
   3.158890405790000E-02   3.190637782170000E-02   3.222704224980000E-02
   3.255092940910000E-02   3.287807168840000E-02   3.320850180220000E-02
   3.354225279400000E-02   3.387935803890000E-02   3.421985124790000E-02
   3.456376647060000E-02   3.491113809860000E-02   3.526200086960000E-02
   3.561638987010000E-02   3.597434053920000E-02   3.633588867240000E-02
   3.670107042470000E-02   3.706992231460000E-02   3.744248122770000E-02
   3.781878442010000E-02   3.819886952240000E-02   3.858277454350000E-02
   3.897053787430000E-02   3.936219829130000E-02   3.975779496090000E-02
   4.015736744320000E-02   4.056095569560000E-02   4.096860007750000E-02
   4.138034135340000E-02   4.179622069800000E-02   4.221627969950000E-02
   4.264056036420000E-02   4.306910512040000E-02   4.350195682300000E-02
   4.393915875760000E-02   4.438075464470000E-02   4.482678864420000E-02
   4.527730535990000E-02   4.573234984390000E-02   4.619196760090000E-02
   4.665620459330000E-02   4.712510724500000E-02   4.759872244660000E-02
   4.807709756020000E-02   4.856028042360000E-02   4.904831935550000E-02
   4.954126316020000E-02   5.003916113260000E-02   5.054206306270000E-02
   5.105001924130000E-02   5.156308046430000E-02   5.208129803830000E-02
   5.260472378560000E-02   5.313341004900000E-02   5.366740969780000E-02
   5.420677613220000E-02   5.475156328940000E-02   5.530182564860000E-02
   5.585761823640000E-02   5.641899663260000E-02   5.698601697550000E-02
   5.755873596760000E-02   5.813721088120000E-02   5.872149956440000E-02
   5.931166044640000E-02   5.990775254400000E-02   6.050983546670000E-02
   6.111796942330000E-02   6.173221522790000E-02   6.235263430540000E-02
   6.297928869830000E-02   6.361224107260000E-02   6.425155472390000E-02
   6.489729358430001E-02   6.554952222820000E-02   6.620830587890000E-02
   6.687371041530001E-02   6.754580237850000E-02   6.822464897820001E-02
   6.891031809970000E-02   6.960287831049999E-02   7.030239886700000E-02
   7.100894972200000E-02   7.172260153120000E-02   7.244342566030000E-02
   7.317149419240000E-02   7.390687993480000E-02   7.464965642680001E-02
   7.539989794670000E-02   7.615767951919999E-02   7.692307692310001E-02
   7.769616669880000E-02   7.847702615590001E-02   7.926573338100000E-02
   8.006236724559999E-02   8.086700741350000E-02   8.167973434960001E-02
   8.250062932720000E-02   8.332977443650000E-02   8.416725259270000E-02
   8.501314754430001E-02   8.586754388150000E-02   8.673052704460001E-02
   8.760218333270001E-02   8.848259991210000E-02   8.937186482530000E-02
   9.027006699940000E-02   9.117729625540000E-02   9.209364331710000E-02
   9.301919981980000E-02   9.395405832000001E-02   9.489831230440000E-02
   9.585205619900000E-02   9.681538537919999E-02   9.778839617860000E-02
   9.877118589910000E-02   9.976385282040000E-02   1.007664962100000E-01
   1.017792163340000E-01   1.028021144630000E-01   1.038352928900000E-01
   1.048788549330000E-01   1.059329049490000E-01   1.069975483430000E-01
   1.080728915820000E-01   1.091590421990000E-01   1.102561088120000E-01
   1.113642011280000E-01   1.124834299560000E-01   1.136139072220000E-01
   1.147557459720000E-01   1.159090603930000E-01   1.170739658170000E-01
   1.182505787340000E-01   1.194390168090000E-01   1.206393988840000E-01
   1.218518450000000E-01   1.230764764010000E-01   1.243134155530000E-01
   1.255627861500000E-01   1.268247131310000E-01   1.280993226880000E-01
   1.293867422850000E-01   1.306871006630000E-01   1.320005278600000E-01
   1.333271552210000E-01   1.346671154070000E-01   1.360205424180000E-01
   1.373875715960000E-01   1.387683396460000E-01   1.401629846450000E-01
   1.415716460600000E-01   1.429944647570000E-01   1.444315830200000E-01
   1.458831445620000E-01   1.473492945400000E-01   1.488301795690000E-01
   1.503259477410000E-01   1.518367486330000E-01   1.533627333260000E-01
   1.549040544210000E-01   1.564608660500000E-01   1.580333238960000E-01
   1.596215852060000E-01   1.612258088070000E-01   1.628461551240000E-01
   1.644827861920000E-01   1.661358656760000E-01   1.678055588840000E-01
   1.694920327890000E-01   1.711954560380000E-01   1.729159989750000E-01
   1.746538336560000E-01   1.764091338660000E-01   1.781820751370000E-01
   1.799728347640000E-01   1.817815918240000E-01   1.836085271940000E-01
   1.854538235710000E-01   1.873176654840000E-01   1.892002393200000E-01
   1.911017333370000E-01   1.930223376870000E-01   1.949622444320000E-01
   1.969216475640000E-01   1.989007430240000E-01   2.008997287250000E-01
   2.029188045660000E-01   2.049581724560000E-01   2.070180363350000E-01
   2.090986021890000E-01   2.112000780780000E-01   2.133226741510000E-01
   2.154666026690000E-01   2.176320780270000E-01   2.198193167740000E-01
   2.220285376360000E-01   2.242599615370000E-01   2.265138116200000E-01
   2.287903132740000E-01   2.310896941500000E-01   2.334121841870000E-01
   2.357580156380000E-01   2.381274230870000E-01   2.405206434760000E-01
   2.429379161300000E-01   2.453794827780000E-01   2.478455875790000E-01
   2.503364771450000E-01   2.528524005680000E-01   2.553936094410000E-01
   2.579603578880000E-01   2.605529025860000E-01   2.631715027920000E-01
   2.658164203660000E-01   2.684879198050000E-01   2.711862682590000E-01
   2.739117355660000E-01   2.766645942750000E-01   2.794451196730000E-01
   2.822535898170000E-01   2.850902855550000E-01   2.879554905590000E-01
   2.908494913510000E-01   2.937725773360000E-01   2.967250408230000E-01
   2.997071770610000E-01   3.027192842670000E-01   3.057616636530000E-01
   3.088346194610000E-01   3.119384589880000E-01   3.150734926210000E-01
   3.182400338650000E-01   3.214383993790000E-01   3.246689090000000E-01
   3.279318857820000E-01   3.312276560270000E-01   3.345565493130000E-01
   3.379188985320000E-01   3.413150399230000E-01   3.447453131030000E-01
   3.482100611010000E-01   3.517096303960000E-01   3.552443709460000E-01
   3.588146362300000E-01   3.624207832760000E-01   3.660631727030000E-01
   3.697421687520000E-01   3.734581393260000E-01   3.772114560250000E-01
   3.810024941840000E-01   3.848316329100000E-01   3.886992551200000E-01
   3.926057475800000E-01   3.965515009410000E-01   4.005369097830000E-01
   4.045623726500000E-01   4.086282920910000E-01   4.127350747020000E-01
   4.168831311640000E-01   4.210728762870000E-01   4.253047290480000E-01
   4.295791126370000E-01   4.338964544940000E-01   4.382571863590000E-01
   4.426617443080000E-01   4.471105688000000E-01   4.516041047220000E-01
   4.561428014300000E-01   4.607271127990000E-01   4.653574972630000E-01
   4.700344178640000E-01   4.747583422990000E-01   4.795297429630000E-01
   4.843490970020000E-01   4.892168863540000E-01   4.941335978020000E-01
   4.990997230220000E-01   5.041157586300000E-01   5.091822062340000E-01
   5.142995724830000E-01   5.194683691180000E-01   5.246891130220001E-01
   5.299623262750000E-01   5.352885362030000E-01   5.406682754300000E-01
   5.461020819350000E-01   5.515904991040000E-01   5.571340757820000E-01
   5.627333663320000E-01   5.683889306870000E-01   5.741013344090000E-01
   5.798711487430001E-01   5.856989506750000E-01   5.915853229910000E-01
   5.975308543309999E-01   6.035361392550000E-01   6.096017782960000E-01
   6.157283780230000E-01   6.219165511000000E-01   6.281669163510000E-01
   6.344800988170000E-01   6.408567298220000E-01   6.472974470340001E-01
   6.538028945300000E-01   6.603737228600000E-01   6.670105891130000E-01
   6.737141569800000E-01   6.804850968250000E-01   6.873240857460000E-01
   6.942318076490001E-01   7.012089533110000E-01   7.082562204520000E-01
   7.153743138060000E-01   7.225639451880000E-01   7.298258335659999E-01
   7.371607051360000E-01   7.445692933900000E-01   7.520523391950000E-01
   7.596105908590000E-01   7.672448042170000E-01   7.749557426930000E-01
   7.827441773900000E-01   7.906108871570000E-01   7.985566586720000E-01
   8.065822865180000E-01   8.146885732640000E-01   8.228763295470000E-01
   8.311463741489999E-01   8.394995340800000E-01   8.479366446650000E-01
   8.564585496200000E-01   8.650661011450000E-01   8.737601600000000E-01
   8.825415956000000E-01   8.914112860940000E-01   9.003701184600000E-01
   9.094189885880000E-01   9.185588013729999E-01   9.277904708030000E-01
   9.371149200540000E-01   9.465330815780000E-01   9.560458971980000E-01
   9.656543182050000E-01   9.753593054490000E-01   9.851618294359999E-01
   9.950628704259999E-01   1.005063418530000E+00   1.015164473820000E+00
   1.025367046400000E+00   1.035672156540000E+00   1.046080834760000E+00
   1.056594121930000E+00   1.067213069390000E+00   1.077938739060000E+00
   1.088772203490000E+00   1.099714546050000E+00   1.110766860980000E+00
   1.121930253530000E+00   1.133205840030000E+00   1.144594748070000E+00
   1.156098116530000E+00   1.167717095770000E+00   1.179452847690000E+00
   1.191306545870000E+00   1.203279375710000E+00   1.215372534480000E+00
   1.227587231520000E+00   1.239924688310000E+00   1.252386138600000E+00
   1.264972828550000E+00   1.277686016830000E+00   1.290526974780000E+00
   1.303496986500000E+00   1.316597349010000E+00   1.329829372350000E+00
   1.343194379740000E+00   1.356693707680000E+00   1.370328706120000E+00
   1.384100738580000E+00   1.398011182260000E+00   1.412061428230000E+00
   1.426252881520000E+00   1.440586961280000E+00   1.455065100940000E+00
   1.469688748330000E+00   1.484459365810000E+00   1.499378430460000E+00
   1.514447434210000E+00   1.529667883970000E+00   1.545041301780000E+00
   1.560569225020000E+00   1.576253206480000E+00   1.592094814570000E+00
   1.608095633470000E+00   1.624257263270000E+00   1.640581320160000E+00
   1.657069436540000E+00   1.673723261250000E+00   1.690544459670000E+00
   1.707534713960000E+00   1.724695723130000E+00   1.742029203320000E+00
   1.759536887880000E+00   1.777220527590000E+00   1.795081890840000E+00
   1.813122763770000E+00   1.831344950490000E+00   1.849750273240000E+00
   1.868340572550000E+00   1.887117707470000E+00   1.906083555740000E+00
   1.925240013950000E+00   1.944588997770000E+00   1.964132442100000E+00
   1.983872301320000E+00   2.003810549420000E+00   2.023949180250000E+00
   2.044290207680000E+00   2.064835665840000E+00   2.085587609280000E+00
   2.106548113220000E+00   2.127719273730000E+00   2.149103207940000E+00
   2.170702054260000E+00   2.192517972600000E+00   2.214553144560000E+00
   2.236809773680000E+00   2.259290085640000E+00   2.281996328490000E+00
   2.304930772880000E+00   2.328095712260000E+00   2.351493463160000E+00
   2.375126365360000E+00   2.398996782180000E+00   2.423107100670000E+00
   2.447459731900000E+00   2.472057111130000E+00   2.496901698140000E+00
   2.521995977400000E+00   2.547342458360000E+00   2.572943675690000E+00
   2.598802189530000E+00   2.624920585750000E+00   2.651301476220000E+00
   2.677947499050000E+00   2.704861318850000E+00   2.732045627050000E+00
   2.759503142080000E+00   2.787236609730000E+00   2.815248803360000E+00
   2.843542524220000E+00   2.872120601700000E+00   2.900985893630000E+00
   2.930141286570000E+00   2.959589696080000E+00   2.989334067030000E+00
   3.019377373870000E+00   3.049722620970000E+00   3.080372842870000E+00