<UPF version="2.0.1">
  <PP_INFO>
    Generated by new atomic code, or converted to UPF format
    Author: 
    Generation date: 
    Pseudopotential type: NC
    Element: B
    Functional:  SLA  PW   SCAN SCAN
    Suggested minimum cutoff for wavefunctions:   0. Ry
    Suggested minimum cutoff for charge density:   0. Ry
    The Pseudo was generated with a Non-Relativistic Calculation
    L component and cutoff radius for Local Potential:  0   0.0000
    Valence configuration: 
    nl pn  l   occ       Rcut    Rcut US       E pseu
    0S  1  0  2.00      0.000      0.000     0.000000
    0P  2  1  1.00      0.000      0.000     0.000000
    Generation configuration: not available.
  </PP_INFO>
    <!-- END OF HUMAN READABLE SECTION -->
  <PP_HEADER generated="Generated by new atomic code, or converted to UPF format" author="" date="" comment="" element="B" pseudo_type="NC" relativistic="no" is_ultrasoft="false" is_paw="false" is_coulomb="false" has_so="false" has_wfc="false" has_gipaw="false" paw_as_gipaw="false" core_correction="false" functional=" SLA  PW   SCAN SCAN" z_valence="3.00000000000000" total_psenergy="0.000000000000000E+000" wfc_cutoff="0.000000000000000E+000" rho_cutoff="0.000000000000000E+000" l_max="0" l_max_rho="0" l_local="0" mesh_size="1371" number_of_wfc="2" number_of_proj="1"/>
  <PP_MESH mesh="1371" dx="9.999999999999879E-003" xmin="-8.00000000000004" rmax="59.7734801934000" zmesh="5.00000000000000">
    <PP_R>
   6.709252558049999E-05   6.776681667269999E-05   6.844788450299999E-05
   6.913579717880000E-05   6.983062349200000E-05   7.053243292570000E-05
   7.124129566140000E-05   7.195728258610000E-05   7.268046529900000E-05
   7.341091611900000E-05   7.414870809180001E-05   7.489391499720000E-05
   7.564661135650000E-05   7.640687244000000E-05   7.717477427440000E-05
   7.795039365060000E-05   7.873380813100000E-05   7.952509605790001E-05
   8.032433656070000E-05   8.113160956400000E-05   8.194699579600000E-05
   8.277057679580000E-05   8.360243492220000E-05   8.444265336179999E-05
   8.529131613710000E-05   8.614850811510001E-05   8.701431501570000E-05
   8.788882342040000E-05   8.877212078060000E-05   8.966429542679999E-05
   9.056543657740000E-05   9.147563434700000E-05   9.239497975630000E-05
   9.332356474060000E-05   9.426148215920000E-05   9.520882580450000E-05
   9.616569041170000E-05   9.713217166810000E-05   9.810836622260001E-05
   9.909437169550001E-05   1.000902866880000E-04   1.010962107930000E-04
   1.021122446030000E-04   1.031384897220000E-04   1.041750487770000E-04
   1.052220254230000E-04   1.062795243600000E-04   1.073476513370000E-04
   1.084265131690000E-04   1.095162177430000E-04   1.106168740300000E-04
   1.117285920960000E-04   1.128514831150000E-04   1.139856593760000E-04
   1.151312342970000E-04   1.162883224390000E-04   1.174570395090000E-04
   1.186375023810000E-04   1.198298291030000E-04   1.210341389070000E-04
   1.222505522260000E-04   1.234791907020000E-04   1.247201772000000E-04
   1.259736358200000E-04   1.272396919080000E-04   1.285184720710000E-04
   1.298101041890000E-04   1.311147174250000E-04   1.324324422420000E-04
   1.337634104140000E-04   1.351077550390000E-04   1.364656105510000E-04
   1.378371127390000E-04   1.392223987520000E-04   1.406216071210000E-04
   1.420348777690000E-04   1.434623520220000E-04   1.449041726300000E-04
   1.463604837760000E-04   1.478314310930000E-04   1.493171616750000E-04
   1.508178240990000E-04   1.523335684300000E-04   1.538645462450000E-04
   1.554109106440000E-04   1.569728162620000E-04   1.585504192930000E-04
   1.601438774980000E-04   1.617533502250000E-04   1.633789984210000E-04
   1.650209846530000E-04   1.666794731210000E-04   1.683546296760000E-04
   1.700466218330000E-04   1.717556187950000E-04   1.734817914610000E-04
   1.752253124520000E-04   1.769863561190000E-04   1.787650985700000E-04
   1.805617176790000E-04   1.823763931110000E-04   1.842093063340000E-04
   1.860606406410000E-04   1.879305811670000E-04   1.898193149080000E-04
   1.917270307390000E-04   1.936539194320000E-04   1.956001736790000E-04
   1.975659881060000E-04   1.995515592970000E-04   2.015570858100000E-04
   2.035827681990000E-04   2.056288090350000E-04   2.076954129230000E-04
   2.097827865260000E-04   2.118911385820000E-04   2.140206799280000E-04
   2.161716235210000E-04   2.183441844560000E-04   2.205385799920000E-04
   2.227550295690000E-04   2.249937548350000E-04   2.272549796640000E-04
   2.295389301800000E-04   2.318458347810000E-04   2.341759241580000E-04
   2.365294313230000E-04   2.389065916280000E-04   2.413076427920000E-04
   2.437328249200000E-04   2.461823805350000E-04   2.486565545920000E-04
   2.511555945120000E-04   2.536797502010000E-04   2.562292740770000E-04
   2.588044210930000E-04   2.614054487670000E-04   2.640326172040000E-04
   2.666861891230000E-04   2.693664298820000E-04   2.720736075100000E-04
   2.748079927240000E-04   2.775698589670000E-04   2.803594824270000E-04
   2.831771420690000E-04   2.860231196620000E-04   2.888976998040000E-04
   2.918011699570000E-04   2.947338204710000E-04   2.976959446120000E-04
   3.006878385960000E-04   3.037098016140000E-04   3.067621358650000E-04
   3.098451465850000E-04   3.129591420790000E-04   3.161044337470000E-04
   3.192813361220000E-04   3.224901668970000E-04   3.257312469580000E-04
   3.290049004140000E-04   3.323114546350000E-04   3.356512402780000E-04
   3.390245913250000E-04   3.424318451130000E-04   3.458733423710000E-04
   3.493494272520000E-04   3.528604473670000E-04   3.564067538200000E-04
   3.599887012460000E-04   3.636066478420000E-04   3.672609554060000E-04
   3.709519893710000E-04   3.746801188440000E-04   3.784457166420000E-04
   3.822491593270000E-04   3.860908272460000E-04   3.899711045690000E-04
   3.938903793280000E-04   3.978490434530000E-04   4.018474928140000E-04
   4.058861272590000E-04   4.099653506550000E-04   4.140855709280000E-04
   4.182472001030000E-04   4.224506543470000E-04   4.266963540080000E-04
   4.309847236600000E-04   4.353161921430000E-04   4.396911926090000E-04
   4.441101625600000E-04   4.485735438970000E-04   4.530817829630000E-04
   4.576353305840000E-04   4.622346421200000E-04   4.668801775060000E-04
   4.715724012980000E-04   4.763117827230000E-04   4.810987957240000E-04
   4.859339190050000E-04   4.908176360830000E-04   4.957504353330000E-04
   5.007328100400000E-04   5.057652584460000E-04   5.108482837990000E-04
   5.159823944050000E-04   5.211681036820000E-04   5.264059302030000E-04
   5.316963977550000E-04   5.370400353910000E-04   5.424373774770000E-04
   5.478889637540000E-04   5.533953393830000E-04   5.589570550070000E-04
   5.645746668029999E-04   5.702487365360000E-04   5.759798316180000E-04
   5.817685251630000E-04   5.876153960450000E-04   5.935210289560000E-04
   5.994860144650000E-04   6.055109490750000E-04   6.115964352850001E-04
   6.177430816469999E-04   6.239515028330000E-04   6.302223196890000E-04
   6.365561593020000E-04   6.429536550610001E-04   6.494154467220000E-04
   6.559421804689999E-04   6.625345089800000E-04   6.691930914940000E-04
   6.759185938750000E-04   6.827116886790000E-04   6.895730552210000E-04
   6.965033796420000E-04   7.035033549820000E-04   7.105736812439999E-04
   7.177150654660000E-04   7.249282217930000E-04   7.322138715460000E-04
   7.395727432970000E-04   7.470055729380000E-04   7.545131037580000E-04
   7.620960865180000E-04   7.697552795220000E-04   7.774914486950000E-04
   7.853053676610000E-04   7.931978178180000E-04   8.011695884180000E-04
   8.092214766440000E-04   8.173542876930000E-04   8.255688348510000E-04
   8.338659395810000E-04   8.422464315990000E-04   8.507111489630000E-04
   8.592609381500000E-04   8.678966541480000E-04   8.766191605340000E-04
   8.854293295660000E-04   8.943280422700000E-04   9.033161885230000E-04
   9.123946671470000E-04   9.215643859989999E-04   9.308262620570000E-04
   9.401812215169999E-04   9.496301998820000E-04   9.591741420590000E-04
   9.688140024500000E-04   9.785507450480000E-04   9.883853435360000E-04
   9.983187813819999E-04   1.008352051940000E-03   1.018486158540000E-03
   1.028722114610000E-03   1.039060943740000E-03   1.049503679840000E-03
   1.060051367170000E-03   1.070705060530000E-03   1.081465825290000E-03
   1.092334737530000E-03   1.103312884150000E-03   1.114401362980000E-03
   1.125601282880000E-03   1.136913763840000E-03   1.148339937130000E-03
   1.159880945370000E-03   1.171537942670000E-03   1.183312094740000E-03
   1.195204579000000E-03   1.207216584720000E-03   1.219349313100000E-03
   1.231603977430000E-03   1.243981803190000E-03   1.256484028160000E-03
   1.269111902580000E-03   1.281866689250000E-03   1.294749663660000E-03
   1.307762114110000E-03   1.320905341860000E-03   1.334180661250000E-03
   1.347589399820000E-03   1.361132898450000E-03   1.374812511500000E-03
   1.388629606950000E-03   1.402585566520000E-03   1.416681785810000E-03
   1.430919674460000E-03   1.445300656280000E-03   1.459826169360000E-03
   1.474497666270000E-03   1.489316614180000E-03   1.504284495000000E-03
   1.519402805520000E-03   1.534673057580000E-03   1.550096778230000E-03
   1.565675509850000E-03   1.581410810320000E-03   1.597304253190000E-03
   1.613357427820000E-03   1.629571939540000E-03   1.645949409800000E-03
   1.662491476380000E-03   1.679199793500000E-03   1.696076031990000E-03
   1.713121879500000E-03   1.730339040620000E-03   1.747729237090000E-03
   1.765294207950000E-03   1.783035709690000E-03   1.800955516490000E-03
   1.819055420340000E-03   1.837337231250000E-03   1.855802777410000E-03
   1.874453905400000E-03   1.893292480340000E-03   1.912320386110000E-03
   1.931539525510000E-03   1.950951820470000E-03   1.970559212240000E-03
   1.990363661570000E-03   2.010367148930000E-03   2.030571674670000E-03
   2.050979259280000E-03   2.071591943520000E-03   2.092411788690000E-03
   2.113440876770000E-03   2.134681310700000E-03   2.156135214550000E-03
   2.177804733710000E-03   2.199692035160000E-03   2.221799307650000E-03
   2.244128761920000E-03   2.266682630930000E-03   2.289463170100000E-03
   2.312472657490000E-03   2.335713394080000E-03   2.359187703950000E-03
   2.382897934560000E-03   2.406846456940000E-03   2.431035665980000E-03
   2.455467980610000E-03   2.480145844090000E-03   2.505071724210000E-03
   2.530248113600000E-03   2.555677529910000E-03   2.581362516100000E-03
   2.607305640690000E-03   2.633509498020000E-03   2.659976708490000E-03
   2.686709918850000E-03   2.713711802440000E-03   2.740985059470000E-03
   2.768532417300000E-03   2.796356630670000E-03   2.824460482030000E-03
   2.852846781800000E-03   2.881518368620000E-03   2.910478109680000E-03
   2.939728900980000E-03   2.969273667620000E-03   2.999115364100000E-03
   3.029256974610000E-03   3.059701513350000E-03   3.090452024780000E-03
   3.121511584000000E-03   3.152883296970000E-03   3.184570300900000E-03
   3.216575764520000E-03   3.248902888390000E-03   3.281554905260000E-03
   3.314535080350000E-03   3.347846711720000E-03   3.381493130540000E-03
   3.415477701500000E-03   3.449803823070000E-03   3.484474927900000E-03
   3.519494483120000E-03   3.554865990730000E-03   3.590592987900000E-03
   3.626679047360000E-03   3.663127777750000E-03   3.699942823960000E-03
   3.737127867550000E-03   3.774686627030000E-03   3.812622858320000E-03
   3.850940355080000E-03   3.889642949080000E-03   3.928734510610000E-03
   3.968218948870000E-03   4.008100212340000E-03   4.048382289160000E-03
   4.089069207590000E-03   4.130165036340000E-03   4.171673885040000E-03
   4.213599904610000E-03   4.255947287680000E-03   4.298720269020000E-03
   4.341923125970000E-03   4.385560178850000E-03   4.429635791410000E-03
   4.474154371230000E-03   4.519120370220000E-03   4.564538285020000E-03
   4.610412657450000E-03   4.656748074980000E-03   4.703549171200000E-03
   4.750820626260000E-03   4.798567167340000E-03   4.846793569140000E-03
   4.895504654330000E-03   4.944705294070000E-03   4.994400408460000E-03
   5.044594967050000E-03   5.095293989340000E-03   5.146502545270000E-03
   5.198225755750000E-03   5.250468793140000E-03   5.303236881780000E-03
   5.356535298530000E-03   5.410369373270000E-03   5.464744489460000E-03
   5.519666084650000E-03   5.575139651050000E-03   5.631170736060000E-03
   5.687764942840000E-03   5.744927930850000E-03   5.802665416440000E-03
   5.860983173410000E-03   5.919887033580000E-03   5.979382887390000E-03
   6.039476684460000E-03   6.100174434240000E-03   6.161482206550000E-03
   6.223406132210000E-03   6.285952403670000E-03   6.349127275610000E-03
   6.412937065570000E-03   6.477388154580000E-03   6.542486987800000E-03
   6.608240075180000E-03   6.674653992070000E-03   6.741735379910000E-03
   6.809490946920000E-03   6.877927468690000E-03   6.947051788950000E-03
   7.016870820170000E-03   7.087391544320000E-03   7.158621013530000E-03
   7.230566350810000E-03   7.303234750750000E-03   7.376633480250000E-03
   7.450769879240000E-03   7.525651361440000E-03   7.601285415030000E-03
   7.677679603510000E-03   7.754841566340000E-03   7.832779019800000E-03
   7.911499757679999E-03   7.991011652130000E-03   8.071322654410001E-03
   8.152440795670001E-03   8.234374187809999E-03   8.317131024230000E-03
   8.400719580690000E-03   8.485148216100000E-03   8.570425373410000E-03
   8.656559580389999E-03   8.743559450550000E-03   8.831433683940000E-03
   8.920191068050001E-03   9.009840478710000E-03   9.100390880920000E-03
   9.191851329810000E-03   9.284230971490001E-03   9.377539044000001E-03
   9.471784878230000E-03   9.566977898840000E-03   9.663127625210001E-03
   9.760243672400000E-03   9.858335752090001E-03   9.957413673570000E-03
   1.005748734470000E-02   1.015856677300000E-02   1.026066206640000E-02
   1.036378343450000E-02   1.046794118970000E-02   1.057314574770000E-02
   1.067940762900000E-02   1.078673746010000E-02   1.089514597380000E-02
   1.100464401130000E-02   1.111524252230000E-02   1.122695256680000E-02
   1.133978531600000E-02   1.145375205310000E-02   1.156886417500000E-02
   1.168513319290000E-02   1.180257073390000E-02   1.192118854180000E-02
   1.204099847850000E-02   1.216201252500000E-02   1.228424278300000E-02
   1.240770147550000E-02   1.253240094840000E-02   1.265835367190000E-02
   1.278557224130000E-02   1.291406937860000E-02   1.304385793360000E-02
   1.317495088530000E-02   1.330736134300000E-02   1.344110254790000E-02
   1.357618787440000E-02   1.371263083090000E-02   1.385044506190000E-02
   1.398964434890000E-02   1.413024261210000E-02   1.427225391130000E-02
   1.441569244780000E-02   1.456057256550000E-02   1.470690875260000E-02
   1.485471564290000E-02   1.500400801710000E-02   1.515480080460000E-02
   1.530710908480000E-02   1.546094808870000E-02   1.561633320020000E-02
   1.577327995810000E-02   1.593180405720000E-02   1.609192134990000E-02
   1.625364784820000E-02   1.641699972480000E-02   1.658199331500000E-02
   1.674864511840000E-02   1.691697180030000E-02   1.708699019350000E-02
   1.725871729990000E-02   1.743217029240000E-02   1.760736651650000E-02
   1.778432349190000E-02   1.796305891440000E-02   1.814359065790000E-02
   1.832593677550000E-02   1.851011550210000E-02   1.869614525560000E-02
   1.888404463930000E-02   1.907383244310000E-02   1.926552764610000E-02
   1.945914941790000E-02   1.965471712090000E-02   1.985225031190000E-02
   2.005176874460000E-02   2.025329237080000E-02   2.045684134310000E-02
   2.066243601660000E-02   2.087009695100000E-02   2.107984491240000E-02
   2.129170087590000E-02   2.150568602720000E-02   2.172182176500000E-02
   2.194012970310000E-02   2.216063167250000E-02   2.238334972350000E-02
   2.260830612810000E-02   2.283552338220000E-02   2.306502420760000E-02
   2.329683155470000E-02   2.353096860440000E-02   2.376745877050000E-02
   2.400632570230000E-02   2.424759328670000E-02   2.449128565060000E-02
   2.473742716350000E-02   2.498604243970000E-02   2.523715634100000E-02
   2.549079397900000E-02   2.574698071760000E-02   2.600574217570000E-02
   2.626710422970000E-02   2.653109301600000E-02   2.679773493380000E-02
   2.706705664730000E-02   2.733908508910000E-02   2.761384746220000E-02
   2.789137124300000E-02   2.817168418420000E-02   2.845481431730000E-02
   2.874078995550000E-02   2.902963969670000E-02   2.932139242610000E-02
   2.961607731910000E-02   2.991372384450000E-02   3.021436176730000E-02
   3.051802115140000E-02   3.082473236300000E-02   3.113452607360000E-02
   3.144743326270000E-02   3.176348522140000E-02   3.208271355500000E-02
   3.240515018680000E-02   3.273082736050000E-02   3.305977764430000E-02
   3.339203393340000E-02   3.372762945370000E-02   3.406659776510000E-02
   3.440897276460000E-02   3.475478869010000E-02   3.510408012340000E-02
   3.545688199400000E-02   3.581322958230000E-02   3.617315852340000E-02
   3.653670481050000E-02   3.690390479860000E-02   3.727479520790000E-02
   3.764941312770000E-02   3.802779602030000E-02   3.840998172420000E-02
   3.879600845820000E-02   3.918591482540000E-02   3.957973981670000E-02
   3.997752281500000E-02   4.037930359890000E-02   4.078512234680000E-02
   4.119501964100000E-02   4.160903647140000E-02   4.202721424020000E-02
   4.244959476530000E-02   4.287622028540000E-02   4.330713346320000E-02
   4.374237739040000E-02   4.418199559190000E-02   4.462603202970000E-02
   4.507453110790000E-02   4.552753767680000E-02   4.598509703730000E-02
   4.644725494600000E-02   4.691405761880000E-02   4.738555173640000E-02
   4.786178444880000E-02   4.834280337940000E-02   4.882865663070000E-02
   4.931939278830000E-02   4.981506092630000E-02   5.031571061200000E-02
   5.082139191060000E-02   5.133215539070000E-02   5.184805212920000E-02
   5.236913371610000E-02   5.289545226000000E-02   5.342706039320000E-02
   5.396401127690000E-02   5.450635860680000E-02   5.505415661800000E-02
   5.560746009060000E-02   5.616632435570000E-02   5.673080530000000E-02
   5.730095937200000E-02   5.787684358780000E-02   5.845851553620000E-02
   5.904603338480000E-02   5.963945588600000E-02   6.023884238240000E-02
   6.084425281330000E-02   6.145574772020000E-02   6.207338825310000E-02
   6.269723617650000E-02   6.332735387580000E-02   6.396380436330000E-02
   6.460665128449999E-02   6.525595892460000E-02   6.591179221500000E-02
   6.657421673960000E-02   6.724329874130000E-02   6.791910512900000E-02
   6.860170348370000E-02   6.929116206600000E-02   6.998754982220000E-02
   7.069093639180000E-02   7.140139211380001E-02   7.211898803460000E-02
   7.284379591430000E-02   7.357588823430000E-02   7.431533820440001E-02
   7.506221977030000E-02   7.581660762070000E-02   7.657857719500000E-02
   7.734820469089999E-02   7.812556707170000E-02   7.891074207430000E-02
   7.970380821690000E-02   8.050484480670000E-02   8.131393194809999E-02
   8.213115055050001E-02   8.295658233630000E-02   8.379030984950001E-02
   8.463241646350000E-02   8.548298638970001E-02   8.634210468580000E-02
   8.720985726430000E-02   8.808633090119999E-02   8.897161324460000E-02
   8.986579282340000E-02   9.076895905650000E-02   9.168120226100000E-02
   9.260261366220000E-02   9.353328540200000E-02   9.447331054820000E-02
   9.542278310420001E-02   9.638179801800000E-02   9.735045119200000E-02
   9.832883949220000E-02   9.931706075830000E-02   1.003152138130000E-01
   1.013233984730000E-01   1.023417155570000E-01   1.033702668980000E-01
   1.044091553520000E-01   1.054584848090000E-01   1.065183602010000E-01
   1.075888875190000E-01   1.086701738150000E-01   1.097623272190000E-01
   1.108654569470000E-01   1.119796733130000E-01   1.131050877400000E-01
   1.142418127700000E-01   1.153899620760000E-01   1.165496504750000E-01
   1.177209939360000E-01   1.189041095940000E-01   1.200991157620000E-01
   1.213061319430000E-01   1.225252788370000E-01   1.237566783610000E-01
   1.250004536570000E-01   1.262567291010000E-01   1.275256303240000E-01
   1.288072842170000E-01   1.301018189450000E-01   1.314093639630000E-01
   1.327300500270000E-01   1.340640092070000E-01   1.354113749000000E-01
   1.367722818420000E-01   1.381468661270000E-01   1.395352652140000E-01
   1.409376179440000E-01   1.423540645530000E-01   1.437847466860000E-01
   1.452298074150000E-01   1.466893912450000E-01   1.481636441360000E-01
   1.496527135160000E-01   1.511567482910000E-01   1.526758988670000E-01
   1.542103171610000E-01   1.557601566140000E-01   1.573255722130000E-01
   1.589067205010000E-01   1.605037595920000E-01   1.621168491940000E-01
   1.637461506160000E-01   1.653918267890000E-01   1.670540422820000E-01
   1.687329633190000E-01   1.704287577930000E-01   1.721415952850000E-01
   1.738716470800000E-01   1.756190861840000E-01   1.773840873430000E-01
   1.791668270590000E-01   1.809674836070000E-01   1.827862370540000E-01
   1.846232692770000E-01   1.864787639810000E-01   1.883529067170000E-01
   1.902458849000000E-01   1.921578878300000E-01   1.940891067100000E-01
   1.960397346610000E-01   1.980099667500000E-01   2.000000000000000E-01
   2.020100334170000E-01   2.040402680050000E-01   2.060909067910000E-01
   2.081621548380000E-01   2.102542192750000E-01   2.123673093090000E-01
   2.145016362510000E-01   2.166574135350000E-01   2.188348567410000E-01
   2.210341836150000E-01   2.232556140920000E-01   2.254993703160000E-01
   2.277656766650000E-01   2.300547597710000E-01   2.323668485460000E-01
   2.347021741980000E-01   2.370609702640000E-01   2.394434726240000E-01
   2.418499195310000E-01   2.442805516320000E-01   2.467356119910000E-01
   2.492153461170000E-01   2.517200019860000E-01   2.542498300640000E-01
   2.568050833380000E-01   2.593860173330000E-01   2.619928901470000E-01
   2.646259624670000E-01   2.672854976050000E-01   2.699717615150000E-01
   2.726850228260000E-01   2.754255528670000E-01   2.781936256930000E-01
   2.809895181130000E-01   2.838135097190000E-01   2.866658829120000E-01
   2.895469229330000E-01   2.924569178870000E-01   2.953961587770000E-01
   2.983649395280000E-01   3.013635570230000E-01   3.043923111240000E-01
   3.074515047100000E-01   3.105414437020000E-01   3.136624370980000E-01
   3.168147969990000E-01   3.199988386430000E-01   3.232148804390000E-01
   3.264632439910000E-01   3.297442541400000E-01   3.330582389890000E-01
   3.364055299400000E-01   3.397864617240000E-01   3.432013724370000E-01
   3.466506035730000E-01   3.501345000590000E-01   3.536534102870000E-01
   3.572076861500000E-01   3.607976830800000E-01   3.644237600780000E-01
   3.680862797560000E-01   3.717856083690000E-01   3.755221158530000E-01
   3.792961758610000E-01   3.831081658030000E-01   3.869584668800000E-01
   3.908474641270000E-01   3.947755464460000E-01   3.987431066490000E-01
   4.027505414940000E-01   4.067982517290000E-01   4.108866421290000E-01
   4.150161215350000E-01   4.191871028990000E-01   4.234000033230000E-01
   4.276552440990000E-01   4.319532507570000E-01   4.362944531000000E-01
   4.406792852510000E-01   4.451081856980000E-01   4.495815973350000E-01
   4.540999675060000E-01   4.586637480530000E-01   4.632733953560000E-01
   4.679293703850000E-01   4.726321387410000E-01   4.773821707050000E-01
   4.821799412830000E-01   4.870259302580000E-01   4.919206222310000E-01
   4.968645066770000E-01   5.018580779870000E-01   5.069018355240000E-01
   5.119962836660000E-01   5.171419318629999E-01   5.223392946850000E-01
   5.275888918710000E-01   5.328912483860000E-01   5.382468944700000E-01
   5.436563656920000E-01   5.491202030030000E-01   5.546389527930000E-01
   5.602131669400000E-01   5.658434028700000E-01   5.715302236130000E-01
   5.772741978540000E-01   5.830758999950000E-01   5.889359102130000E-01
   5.948548145130000E-01   6.008332047890000E-01   6.068716788870000E-01
   6.129708406590000E-01   6.191313000250001E-01   6.253536730370000E-01
   6.316385819380000E-01   6.379866552230000E-01   6.443985277060000E-01
   6.508748405780000E-01   6.574162414770000E-01   6.640233845470001E-01
   6.706969305100000E-01   6.774375467240000E-01   6.842459072580001E-01
   6.911226929530000E-01   6.980685914920000E-01   7.050842974730001E-01
   7.121705124710001E-01   7.193279451140000E-01   7.265573111510000E-01
   7.338593335240000E-01   7.412347424420000E-01   7.486842754520000E-01
   7.562086775140000E-01   7.638087010730000E-01   7.714851061390000E-01
   7.792386603590000E-01   7.870701390940000E-01   7.949803254990000E-01
   8.029700105990000E-01   8.110399933690000E-01   8.191910808140000E-01
   8.274240880500000E-01   8.357398383850000E-01   8.441391633990000E-01
   8.526229030340000E-01   8.611919056689999E-01   8.698470282130000E-01
   8.785891361840000E-01   8.874191038010000E-01   8.963378140679999E-01
   9.053461588630000E-01   9.144450390280000E-01   9.236353644600001E-01
   9.329180541980000E-01   9.422940365180000E-01   9.517642490280001E-01
   9.613296387550000E-01   9.709911622470000E-01   9.807497856650000E-01
   9.906064848790000E-01   1.000562245570000E+00   1.010618063310000E+00
   1.020774943710000E+00   1.031033902450000E+00   1.041395965440000E+00
   1.051862168890000E+00   1.062433559440000E+00   1.073111194220000E+00
   1.083896141030000E+00   1.094789478350000E+00   1.105792295520000E+00
   1.116905692860000E+00   1.128130781690000E+00   1.139468684530000E+00
   1.150920535200000E+00   1.162487478880000E+00   1.174170672280000E+00
   1.185971283720000E+00   1.197890493280000E+00   1.209929492880000E+00
   1.222089486450000E+00   1.234371689980000E+00   1.246777331700000E+00
   1.259307652210000E+00   1.271963904520000E+00   1.284747354290000E+00
   1.297659279860000E+00   1.310700972440000E+00   1.323873736210000E+00
   1.337178888460000E+00   1.350617759710000E+00   1.364191693860000E+00
   1.377902048320000E+00   1.391750194130000E+00   1.405737516120000E+00
   1.419865413030000E+00   1.434135297670000E+00   1.448548597030000E+00
   1.463106752460000E+00   1.477811219790000E+00   1.492663469460000E+00
   1.507664986730000E+00   1.522817271760000E+00   1.538121839780000E+00
   1.553580221260000E+00   1.569193962060000E+00   1.584964623570000E+00
   1.600893782860000E+00   1.616983032860000E+00   1.633233982510000E+00
   1.649648256930000E+00   1.666227497540000E+00   1.682973362290000E+00
   1.699887525780000E+00   1.716971679440000E+00   1.734227531690000E+00
   1.751656808150000E+00   1.769261251740000E+00   1.787042622940000E+00
   1.805002699890000E+00   1.823143278610000E+00   1.841466173180000E+00
   1.859973215900000E+00   1.878666257490000E+00   1.897547167270000E+00
   1.916617833350000E+00   1.935880162810000E+00   1.955336081910000E+00
   1.974987536230000E+00   1.994836490960000E+00   2.014884931000000E+00
   2.035134861210000E+00   2.055588306610000E+00   2.076247312550000E+00
   2.097113944950000E+00   2.118190290490000E+00   2.139478456820000E+00
   2.160980572790000E+00   2.182698788610000E+00   2.204635276130000E+00
   2.226792229010000E+00   2.249171862980000E+00   2.271776416000000E+00
   2.294608148560000E+00   2.317669343840000E+00   2.340962308000000E+00
   2.364489370330000E+00   2.388252883570000E+00   2.412255224090000E+00
   2.436498792140000E+00   2.460986012100000E+00   2.485719332720000E+00
   2.510701227330000E+00   2.535934194170000E+00   2.561420756530000E+00
   2.587163463110000E+00   2.613164888190000E+00   2.639427631930000E+00
   2.665954320640000E+00   2.692747607000000E+00   2.719810170370000E+00
   2.747144717020000E+00   2.774753980430000E+00   2.802640721550000E+00
   2.830807729080000E+00   2.859257819740000E+00   2.887993838560000E+00
   2.917018659180000E+00   2.946335184090000E+00   2.975946344970000E+00
   3.005855102980000E+00   3.036064448990000E+00   3.066577403980000E+00
   3.097397019270000E+00   3.128526376840000E+00   3.159968589650000E+00
   3.191726801960000E+00   3.223804189610000E+00   3.256203960360000E+00
   3.288929354220000E+00   3.321983643760000E+00   3.355370134430000E+00
   3.389092164910000E+00   3.423153107430000E+00   3.457556368110000E+00
   3.492305387320000E+00   3.527403639970000E+00   3.562854635920000E+00
   3.598661920310000E+00   3.634829073890000E+00   3.671359713400000E+00
   3.708257491950000E+00   3.745526099330000E+00   3.783169262450000E+00
   3.821190745650000E+00   3.859594351100000E+00   3.898383919210000E+00
   3.937563328950000E+00   3.977136498310000E+00   4.017107384640000E+00
   4.057479985050000E+00   4.098258336840000E+00   4.139446517880000E+00
   4.181048647020000E+00   4.223068884510000E+00   4.265511432410000E+00
   4.308380535000000E+00   4.351680479240000E+00   4.395415595150000E+00
   4.439590256290000E+00   4.484208880150000E+00   4.529275928640000E+00
   4.574795908490000E+00   4.620773371740000E+00   4.667212916190000E+00
   4.714119185810000E+00   4.761496871290000E+00   4.809350710410000E+00
   4.857685488620000E+00   4.906506039420000E+00   4.955817244920000E+00
   5.005624036270000E+00   5.055931394190000E+00   5.106744349470000E+00
   5.158067983440000E+00   5.209907428500000E+00   5.262267868650000E+00
   5.315154539970000E+00   5.368572731180000E+00   5.422527784130000E+00
   5.477025094380000E+00   5.532070111700000E+00   5.587668340650000E+00
   5.643825341080000E+00   5.700546728750000E+00   5.757838175850000E+00
   5.815705411560000E+00   5.874154222660000E+00   5.933190454070000E+00
   5.992820009480000E+00   6.053048851880000E+00   6.113883004210000E+00
   6.175328549940000E+00   6.237391633660000E+00   6.300078461750000E+00
   6.363395302930000E+00   6.427348488950000E+00   6.491944415170000E+00
   6.557189541250000E+00   6.623090391740000E+00   6.689653556790000E+00
   6.756885692770000E+00   6.824793522950000E+00   6.893383838170000E+00
   6.962663497520000E+00   7.032639429020000E+00   7.103318630330000E+00
   7.174708169410000E+00   7.246815185300000E+00   7.319646888740000E+00
   7.393210562960000E+00   7.467513564410000E+00   7.542563323440000E+00
   7.618367345080000E+00   7.694933209810000E+00   7.772268574270000E+00
   7.850381172060000E+00   7.929278814510000E+00   8.008969391460001E+00