<UPF version="2.0.1">
  <PP_INFO>
    Generated by new atomic code, or converted to UPF format
    Author: 
    Generation date: 
    Pseudopotential type: NC
    Element: Be
    Functional:  SLA  PW   SCAN SCAN
    Suggested minimum cutoff for wavefunctions:   0. Ry
    Suggested minimum cutoff for charge density:   0. Ry
    The Pseudo was generated with a Non-Relativistic Calculation
    L component and cutoff radius for Local Potential:  0   0.0000
    Valence configuration: 
    nl pn  l   occ       Rcut    Rcut US       E pseu
    0S  1  0  2.00      0.000      0.000     0.000000
    0P  2  1  0.00      0.000      0.000     0.000000
    Generation configuration: not available.
  </PP_INFO>
    <!-- END OF HUMAN READABLE SECTION -->
  <PP_HEADER generated="Generated by new atomic code, or converted to UPF format" author="" date="" comment="" element="Be" pseudo_type="NC" relativistic="no" is_ultrasoft="false" is_paw="false" is_coulomb="false" has_so="false" has_wfc="false" has_gipaw="false" paw_as_gipaw="false" core_correction="false" functional=" SLA  PW   SCAN SCAN" z_valence="2.00000000000000" total_psenergy="0.000000000000000E+000" wfc_cutoff="0.000000000000000E+000" rho_cutoff="0.000000000000000E+000" l_max="0" l_max_rho="0" l_local="0" mesh_size="1349" number_of_wfc="2" number_of_proj="1"/>
  <PP_MESH mesh="1349" dx="1.000000000000069E-002" xmin="-8.00000000000033" rmax="59.9616768436000" zmesh="4.00000000000000">
    <PP_R>
   8.386565697560000E-05   8.470852084089999E-05   8.555985562880000E-05
   8.641974647350000E-05   8.728827936500000E-05   8.816554115710000E-05
   8.905161957680001E-05   8.994660323260000E-05   9.085058162380000E-05
   9.176364514880001E-05   9.268588511480000E-05   9.361739374650000E-05
   9.455826419570000E-05   9.550859055000000E-05   9.646846784300000E-05
   9.743799206320000E-05   9.841726016380000E-05   9.940637007240000E-05
   1.004054207010000E-04   1.014145119550000E-04   1.024337447450000E-04
   1.034632209950000E-04   1.045030436530000E-04   1.055533167020000E-04
   1.066141451710000E-04   1.076856351440000E-04   1.087678937700000E-04
   1.098610292750000E-04   1.109651509760000E-04   1.120803692840000E-04
   1.132067957220000E-04   1.143445429340000E-04   1.154937246950000E-04
   1.166544559260000E-04   1.178268526990000E-04   1.190110322560000E-04
   1.202071130150000E-04   1.214152145850000E-04   1.226354577780000E-04
   1.238679646190000E-04   1.251128583600000E-04   1.263702634910000E-04
   1.276403057540000E-04   1.289231121530000E-04   1.302188109710000E-04
   1.315275317790000E-04   1.328494054500000E-04   1.341845641710000E-04
   1.355331414610000E-04   1.368952721790000E-04   1.382710925370000E-04
   1.396607401200000E-04   1.410643538930000E-04   1.424820742190000E-04
   1.439140428720000E-04   1.453604030480000E-04   1.468212993860000E-04
   1.482968779770000E-04   1.497872863790000E-04   1.512926736340000E-04
   1.528131902820000E-04   1.543489883770000E-04   1.559002215000000E-04
   1.574670447740000E-04   1.590496148850000E-04   1.606480900890000E-04
   1.622626302360000E-04   1.638933967810000E-04   1.655405528030000E-04
   1.672042630180000E-04   1.688846937980000E-04   1.705820131890000E-04
   1.722963909230000E-04   1.740279984400000E-04   1.757770089020000E-04
   1.775435972110000E-04   1.793279400270000E-04   1.811302157870000E-04
   1.829506047200000E-04   1.847892888660000E-04   1.866464520940000E-04
   1.885222801230000E-04   1.904169605380000E-04   1.923306828070000E-04
   1.942636383040000E-04   1.962160203280000E-04   1.981880241170000E-04
   2.001798468730000E-04   2.021916877810000E-04   2.042237480260000E-04
   2.062762308160000E-04   2.083493414020000E-04   2.104432870950000E-04
   2.125582772920000E-04   2.146945234940000E-04   2.168522393270000E-04
   2.190316405650000E-04   2.212329451490000E-04   2.234563732120000E-04
   2.257021470990000E-04   2.279704913890000E-04   2.302616329170000E-04
   2.325758008010000E-04   2.349132264590000E-04   2.372741436350000E-04
   2.396587884240000E-04   2.420673992900000E-04   2.445002170990000E-04
   2.469574851330000E-04   2.494394491210000E-04   2.519463572620000E-04
   2.544784602490000E-04   2.570360112940000E-04   2.596192661540000E-04
   2.622284831570000E-04   2.648639232270000E-04   2.675258499100000E-04
   2.702145294010000E-04   2.729302305700000E-04   2.756732249890000E-04
   2.784437869610000E-04   2.812421935440000E-04   2.840687245800000E-04
   2.869236627250000E-04   2.898072934760000E-04   2.927199051980000E-04
   2.956617891540000E-04   2.986332395350000E-04   3.016345534900000E-04
   3.046660311500000E-04   3.077279756680000E-04   3.108206932400000E-04
   3.139444931410000E-04   3.170996877520000E-04   3.202865925960000E-04
   3.235055263660000E-04   3.267568109590000E-04   3.300407715050000E-04
   3.333577364030000E-04   3.367080373530000E-04   3.400920093870000E-04
   3.435099909050000E-04   3.469623237090000E-04   3.504493530340000E-04
   3.539714275870000E-04   3.575288995770000E-04   3.611221247550000E-04
   3.647514624470000E-04   3.684172755880000E-04   3.721199307650000E-04
   3.758597982440000E-04   3.796372520170000E-04   3.834526698310000E-04
   3.873064332320000E-04   3.911989275990000E-04   3.951305421840000E-04
   3.991016701530000E-04   4.031127086220000E-04   4.071640586970000E-04
   4.112561255180000E-04   4.153893182930000E-04   4.195640503470000E-04
   4.237807391560000E-04   4.280398063910000E-04   4.323416779640000E-04
   4.366867840650000E-04   4.410755592090000E-04   4.455084422750000E-04
   4.499858765580000E-04   4.545083098030000E-04   4.590761942570000E-04
   4.636899867140000E-04   4.683501485560000E-04   4.730571458020000E-04
   4.778114491580000E-04   4.826135340570000E-04   4.874638807110000E-04
   4.923629741600000E-04   4.973113043160000E-04   5.023093660180000E-04
   5.073576590740000E-04   5.124566883190000E-04   5.176069636600000E-04
   5.228090001289999E-04   5.280633179330000E-04   5.333704425090000E-04
   5.387309045740000E-04   5.441452401790000E-04   5.496139907610001E-04
   5.551377032000000E-04   5.607169298710000E-04   5.663522287040000E-04
   5.720441632310000E-04   5.777933026510000E-04   5.836002218820000E-04
   5.894655016230000E-04   5.953897284040000E-04   6.013734946550000E-04
   6.074173987560000E-04   6.135220451030000E-04   6.196880441670000E-04
   6.259160125510000E-04   6.322065730570000E-04   6.385603547480000E-04
   6.449779930070000E-04   6.514601296020000E-04   6.580074127530000E-04
   6.646204971940000E-04   6.713000442380000E-04   6.780467218470000E-04
   6.848612046920000E-04   6.917441742290000E-04   6.986963187590001E-04
   7.057183335040000E-04   7.128109206700000E-04   7.199747895220000E-04
   7.272106564530000E-04   7.345192450560000E-04   7.419012861950000E-04
   7.493575180810000E-04   7.568886863440000E-04   7.644955441060000E-04
   7.721788520590000E-04   7.799393785410000E-04   7.877778996110000E-04
   7.956951991270000E-04   8.036920688270000E-04   8.117693084030000E-04
   8.199277255859999E-04   8.281681362250000E-04   8.364913643680000E-04
   8.448982423440000E-04   8.533896108490000E-04   8.619663190260000E-04
   8.706292245530000E-04   8.793791937280000E-04   8.882171015550000E-04
   8.971438318330000E-04   9.061602772410001E-04   9.152673394330000E-04
   9.244659291210000E-04   9.337569661720000E-04   9.431413796980000E-04
   9.526201081480000E-04   9.621940994030000E-04   9.718643108690000E-04
   9.816317095759999E-04   9.914972722730000E-04   1.001461985520000E-03
   1.011526845810000E-03   1.021692859620000E-03   1.031961043560000E-03
   1.042332424480000E-03   1.052808039500000E-03   1.063388936200000E-03
   1.074076172690000E-03   1.084870817680000E-03   1.095773950670000E-03
   1.106786661960000E-03   1.117910052840000E-03   1.129145235650000E-03
   1.140493333930000E-03   1.151955482500000E-03   1.163532827570000E-03
   1.175226526900000E-03   1.187037749850000E-03   1.198967677570000E-03
   1.211017503060000E-03   1.223188431310000E-03   1.235481679420000E-03
   1.247898476730000E-03   1.260440064920000E-03   1.273107698170000E-03
   1.285902643260000E-03   1.298826179680000E-03   1.311879599800000E-03
   1.325064208970000E-03   1.338381325660000E-03   1.351832281610000E-03
   1.365418421910000E-03   1.379141105190000E-03   1.393001703730000E-03
   1.407001603600000E-03   1.421142204800000E-03   1.435424921410000E-03
   1.449851181710000E-03   1.464422428330000E-03   1.479140118420000E-03
   1.494005723750000E-03   1.509020730900000E-03   1.524186641380000E-03
   1.539504971790000E-03   1.554977253990000E-03   1.570605035200000E-03
   1.586389878230000E-03   1.602333361560000E-03   1.618437079570000E-03
   1.634702642640000E-03   1.651131677330000E-03   1.667725826560000E-03
   1.684486749770000E-03   1.701416123060000E-03   1.718515639370000E-03
   1.735787008690000E-03   1.753231958150000E-03   1.770852232260000E-03
   1.788649593080000E-03   1.806625820340000E-03   1.824782711700000E-03
   1.843122082840000E-03   1.861645767730000E-03   1.880355618750000E-03
   1.899253506890000E-03   1.918341321970000E-03   1.937620972780000E-03
   1.957094387310000E-03   1.976763512900000E-03   1.996630316490000E-03
   2.016696784770000E-03   2.036964924420000E-03   2.057436762260000E-03
   2.078114345480000E-03   2.098999741870000E-03   2.120095039990000E-03
   2.141402349370000E-03   2.162923800780000E-03   2.184661546370000E-03
   2.206617759930000E-03   2.228794637110000E-03   2.251194395610000E-03
   2.273819275420000E-03   2.296671539060000E-03   2.319753471770000E-03
   2.343067381750000E-03   2.366615600430000E-03   2.390400482640000E-03
   2.414424406880000E-03   2.438689775590000E-03   2.463199015300000E-03
   2.487954576960000E-03   2.512958936160000E-03   2.538214593340000E-03
   2.563724074100000E-03   2.589489929400000E-03   2.615514735860000E-03
   2.641801095960000E-03   2.668351638380000E-03   2.695169018190000E-03
   2.722255917140000E-03   2.749615043950000E-03   2.777249134560000E-03
   2.805160952400000E-03   2.833353288670000E-03   2.861828962630000E-03
   2.890590821870000E-03   2.919641742600000E-03   2.948984629940000E-03
   2.978622418200000E-03   3.008558071180000E-03   3.038794582480000E-03
   3.069334975770000E-03   3.100182305110000E-03   3.131339655270000E-03
   3.162810142000000E-03   3.194596912380000E-03   3.226703145120000E-03
   3.259132050860000E-03   3.291886872520000E-03   3.324970885610000E-03
   3.358387398560000E-03   3.392139753050000E-03   3.426231324340000E-03
   3.460665521620000E-03   3.495445788330000E-03   3.530575602540000E-03
   3.566058477250000E-03   3.601897960780000E-03   3.638097637100000E-03
   3.674661126230000E-03   3.711592084520000E-03   3.748894205120000E-03
   3.786571218260000E-03   3.824626891680000E-03   3.863065030980000E-03
   3.901889480000000E-03   3.941104121210000E-03   3.980712876130000E-03
   4.020719705650000E-03   4.061128610490000E-03   4.101943631570000E-03
   4.143168850440000E-03   4.184808389650000E-03   4.226866413180000E-03
   4.269347126870000E-03   4.312254778840000E-03   4.355593659870000E-03
   4.399368103910000E-03   4.443582488410000E-03   4.488241234880000E-03
   4.533348809200000E-03   4.578909722180000E-03   4.624928529950000E-03
   4.671409834430000E-03   4.718358283790000E-03   4.765778572900000E-03
   4.813675443850000E-03   4.862053686350000E-03   4.910918138270000E-03
   4.960273686090000E-03   5.010125265420000E-03   5.060477861450000E-03
   5.111336509480000E-03   5.162706295430000E-03   5.214592356300000E-03
   5.266999880760000E-03   5.319934109590000E-03   5.373400336270000E-03
   5.427403907460000E-03   5.481950223570000E-03   5.537044739260000E-03
   5.592692964040000E-03   5.648900462780000E-03   5.705672856270000E-03
   5.763015821810000E-03   5.820935093720000E-03   5.879436464000000E-03
   5.938525782830000E-03   5.998208959180000E-03   6.058491961420000E-03
   6.119380817910000E-03   6.180881617580000E-03   6.243000510570000E-03
   6.305743708810000E-03   6.369117486670000E-03   6.433128181590000E-03
   6.497782194690000E-03   6.563085991420000E-03   6.629046102220000E-03
   6.695669123160000E-03   6.762961716590000E-03   6.830930611820000E-03
   6.899582605810000E-03   6.968924563810000E-03   7.038963420080000E-03
   7.109706178550000E-03   7.181159913560000E-03   7.253331770550000E-03
   7.326228966760000E-03   7.399858791970000E-03   7.474228609230000E-03
   7.549345855580000E-03   7.625218042800000E-03   7.701852758190000E-03
   7.779257665270000E-03   7.857440504590000E-03   7.936409094520000E-03
   8.016171331970001E-03   8.096735193230000E-03   8.178108734750000E-03
   8.260300093970000E-03   8.343317490080000E-03   8.427169224890001E-03
   8.511863683649999E-03   8.597409335870001E-03   8.683814736180000E-03
   8.771088525210000E-03   8.859239430400000E-03   8.948276266910001E-03
   9.038207938510000E-03   9.129043438439999E-03   9.220791850310000E-03
   9.313462349050000E-03   9.407064201789999E-03   9.501606768790000E-03
   9.597099504390000E-03   9.693551957930001E-03   9.790973774750000E-03
   9.889374697100000E-03   9.988764565159999E-03   1.008915331800000E-02
   1.019055099460000E-02   1.029296773480000E-02   1.039641378030000E-02
   1.050089947590000E-02   1.060643527010000E-02   1.071303171680000E-02
   1.082069947550000E-02   1.092944931320000E-02   1.103929210490000E-02
   1.115023883510000E-02   1.126230059840000E-02   1.137548860120000E-02
   1.148981416230000E-02   1.160528871440000E-02   1.172192380500000E-02
   1.183973109780000E-02   1.195872237350000E-02   1.207890953150000E-02
   1.220030459050000E-02   1.232291969010000E-02   1.244676709200000E-02
   1.257185918090000E-02   1.269820846620000E-02   1.282582758300000E-02
   1.295472929320000E-02   1.308492648710000E-02   1.321643218460000E-02
   1.334925953630000E-02   1.348342182510000E-02   1.361893246730000E-02
   1.375580501410000E-02   1.389405315290000E-02   1.403369070850000E-02
   1.417473164500000E-02   1.431719006640000E-02   1.446108021870000E-02
   1.460641649110000E-02   1.475321341740000E-02   1.490148567720000E-02
   1.505124809810000E-02   1.520251565630000E-02   1.535530347880000E-02
   1.550962684430000E-02   1.566550118550000E-02   1.582294208990000E-02
   1.598196530170000E-02   1.614258672330000E-02   1.630482241700000E-02
   1.646868860660000E-02   1.663420167880000E-02   1.680137818490000E-02
   1.697023484290000E-02   1.714078853860000E-02   1.731305632730000E-02
   1.748705543620000E-02   1.766280326510000E-02   1.784031738910000E-02
   1.801961555970000E-02   1.820071570690000E-02   1.838363594080000E-02
   1.856839455360000E-02   1.875501002130000E-02   1.894350100570000E-02
   1.913388635600000E-02   1.932618511080000E-02   1.952041650030000E-02
   1.971659994770000E-02   1.991475507150000E-02   2.011490168740000E-02
   2.031705981020000E-02   2.052124965600000E-02   2.072749164380000E-02
   2.093580639800000E-02   2.114621475040000E-02   2.135873774180000E-02
   2.157339662480000E-02   2.179021286550000E-02   2.200920814560000E-02
   2.223040436480000E-02   2.245382364310000E-02   2.267948832240000E-02
   2.290742096940000E-02   2.313764437760000E-02   2.337018156950000E-02
   2.360505579910000E-02   2.384229055390000E-02   2.408190955760000E-02
   2.432393677240000E-02   2.456839640110000E-02   2.481531288990000E-02
   2.506471093070000E-02   2.531661546350000E-02   2.557105167890000E-02
   2.582804502080000E-02   2.608762118870000E-02   2.634980614050000E-02
   2.661462609480000E-02   2.688210753390000E-02   2.715227720620000E-02
   2.742516212890000E-02   2.770078959060000E-02   2.797918715430000E-02
   2.826038266010000E-02   2.854440422770000E-02   2.883128025950000E-02
   2.912103944340000E-02   2.941371075540000E-02   2.970932346310000E-02
   3.000790712790000E-02   3.030949160830000E-02   3.061410706320000E-02
   3.092178395440000E-02   3.123255304960000E-02   3.154644542630000E-02
   3.186349247370000E-02   3.218372589700000E-02   3.250717771960000E-02
   3.283388028710000E-02   3.316386627000000E-02   3.349716866720000E-02
   3.383382080920000E-02   3.417385636140000E-02   3.451730932770000E-02
   3.486421405380000E-02   3.521460523030000E-02   3.556851789660000E-02
   3.592598744440000E-02   3.628704962090000E-02   3.665174053260000E-02
   3.702009664890000E-02   3.739215480570000E-02   3.776795220910000E-02
   3.814752643920000E-02   3.853091545380000E-02   3.891815759200000E-02
   3.930929157840000E-02   3.970435652670000E-02   4.010339194380000E-02
   4.050643773350000E-02   4.091353420070000E-02   4.132472205540000E-02
   4.174004241680000E-02   4.215953681710000E-02   4.258324720640000E-02
   4.301121595580000E-02   4.344348586260000E-02   4.388010015420000E-02
   4.432110249250000E-02   4.476653697790000E-02   4.521644815430000E-02
   4.567088101320000E-02   4.612988099820000E-02   4.659349400990000E-02
   4.706176640970000E-02   4.753474502540000E-02   4.801247715520000E-02
   4.849501057270000E-02   4.898239353170000E-02   4.947467477090000E-02
   4.997190351880000E-02   5.047412949870000E-02   5.098140293360000E-02
   5.149377455120000E-02   5.201129558930000E-02   5.253401780020000E-02
   5.306199345670000E-02   5.359527535670000E-02   5.413391682900000E-02
   5.467797173810000E-02   5.522749448980000E-02   5.578254003710000E-02
   5.634316388490000E-02   5.690942209600000E-02   5.748137129670000E-02
   5.805906868240000E-02   5.864257202340000E-02   5.923193967050000E-02
   5.982723056090000E-02   6.042850422430000E-02   6.103582078840000E-02
   6.164924098540000E-02   6.226882615790000E-02   6.289463826489999E-02
   6.352673988820000E-02   6.416519423840000E-02   6.481006516149999E-02
   6.546141714510000E-02   6.611931532500000E-02   6.678382549150000E-02
   6.745501409620000E-02   6.813294825850000E-02   6.881769577240000E-02
   6.950932511330001E-02   7.020790544460000E-02   7.091350662489999E-02
   7.162619921500001E-02   7.234605448480000E-02   7.307314442020001E-02
   7.380754173100000E-02   7.454931985750000E-02   7.529855297809999E-02
   7.605531601670000E-02   7.681968465029999E-02   7.759173531640000E-02
   7.837154522070000E-02   7.915919234480000E-02   7.995475545410000E-02
   8.075831410560000E-02   8.156994865580000E-02   8.238974026880000E-02
   8.321777092450000E-02   8.405412342670000E-02   8.489888141120000E-02
   8.575212935470000E-02   8.661395258250000E-02   8.748443727780000E-02
   8.836367048969999E-02   8.925174014230000E-02   9.014873504330000E-02
   9.105474489290000E-02   9.196986029290000E-02   9.289417275550001E-02
   9.382777471280000E-02   9.477075952580000E-02   9.572322149380000E-02
   9.668525586359999E-02   9.765695883960000E-02   9.863842759289999E-02
   9.962976027110000E-02   1.006310560080000E-01   1.016424149350000E-01
   1.026639381880000E-01   1.036957279200000E-01   1.047378873120000E-01
   1.057905205790000E-01   1.068537329870000E-01   1.079276308570000E-01
   1.090123215800000E-01   1.101079136260000E-01   1.112145165560000E-01
   1.123322410290000E-01   1.134611988210000E-01   1.146015028260000E-01
   1.157532670780000E-01   1.169166067520000E-01   1.180916381850000E-01
   1.192784788800000E-01   1.204772475230000E-01   1.216880639900000E-01
   1.229110493650000E-01   1.241463259480000E-01   1.253940172670000E-01
   1.266542480910000E-01   1.279271444470000E-01   1.292128336230000E-01
   1.305114441900000E-01   1.318231060110000E-01   1.331479502520000E-01
   1.344861093990000E-01   1.358377172690000E-01   1.372029090240000E-01
   1.385818211840000E-01   1.399745916410000E-01   1.413813596750000E-01
   1.428022659620000E-01   1.442374525950000E-01   1.456870630930000E-01
   1.471512424200000E-01   1.486301369930000E-01   1.501238947030000E-01
   1.516326649280000E-01   1.531565985460000E-01   1.546958479520000E-01
   1.562505670710000E-01   1.578209113770000E-01   1.594070379050000E-01
   1.610091052710000E-01   1.626272736810000E-01   1.642617049540000E-01
   1.659125625340000E-01   1.675800115090000E-01   1.692642186250000E-01
   1.709653523030000E-01   1.726835826590000E-01   1.744190815180000E-01
   1.761720224300000E-01   1.779425806910000E-01   1.797309333580000E-01
   1.815372592680000E-01   1.833617390560000E-01   1.852045551700000E-01
   1.870658918950000E-01   1.889459353640000E-01   1.908448735840000E-01
   1.927628964510000E-01   1.947001957680000E-01   1.966569652670000E-01
   1.986334006260000E-01   2.006296994910000E-01   2.026460614930000E-01
   2.046826882690000E-01   2.067397834860000E-01   2.088175528530000E-01
   2.109162041490000E-01   2.130359472420000E-01   2.151769941060000E-01
   2.173395588500000E-01   2.195238577300000E-01   2.217301091790000E-01
   2.239585338240000E-01   2.262093545090000E-01   2.284827963180000E-01
   2.307790865970000E-01   2.330984549760000E-01   2.354411333960000E-01
   2.378073561250000E-01   2.401973597880000E-01   2.426113833870000E-01
   2.450496683270000E-01   2.475124584370000E-01   2.500000000000000E-01
   2.525125417710000E-01   2.550503350070000E-01   2.576136334880000E-01
   2.602026935480000E-01   2.628177740940000E-01   2.654591366360000E-01
   2.681270453140000E-01   2.708217669190000E-01   2.735435709260000E-01
   2.762927295190000E-01   2.790695176150000E-01   2.818742128950000E-01
   2.847070958310000E-01   2.875684497140000E-01   2.904585606820000E-01
   2.933777177480000E-01   2.963262128300000E-01   2.993043407800000E-01
   3.023123994140000E-01   3.053506895400000E-01   3.084195149890000E-01
   3.115191826470000E-01   3.146500024820000E-01   3.178122875800000E-01
   3.210063541720000E-01   3.242325216660000E-01   3.274911126830000E-01
   3.307824530840000E-01   3.341068720060000E-01   3.374647018940000E-01
   3.408562785330000E-01   3.442819410840000E-01   3.477420321160000E-01
   3.512368976410000E-01   3.547668871480000E-01   3.583323536400000E-01
   3.619336536660000E-01   3.655711473590000E-01   3.692451984710000E-01
   3.729561744100000E-01   3.767044462780000E-01   3.804903889050000E-01
   3.843143808870000E-01   3.881768046280000E-01   3.920780463730000E-01
   3.960184962490000E-01   3.999985483040000E-01   4.040186005480000E-01
   4.080790549890000E-01   4.121803176750000E-01   4.163227987360000E-01
   4.205069124250000E-01   4.247330771550000E-01   4.290017155460000E-01
   4.333132544670000E-01   4.376681250740000E-01   4.420667628580000E-01
   4.465096076880000E-01   4.509971038490000E-01   4.555297000980000E-01
   4.601078496950000E-01   4.647320104620000E-01   4.694026448160000E-01
   4.741202198260000E-01   4.788852072530000E-01   4.836980836010000E-01
   4.885593301590000E-01   4.934694330580000E-01   4.984288833110000E-01
   5.034381768680000E-01   5.084978146619999E-01   5.136083026610000E-01
   5.187701519190000E-01   5.239838786240000E-01   5.292500041530001E-01
   5.345690551240000E-01   5.399415634460000E-01   5.453680663750000E-01
   5.508491065640000E-01   5.563852321230000E-01   5.619769966690000E-01
   5.676249593829999E-01   5.733296850660000E-01   5.790917441950000E-01
   5.849117129810000E-01   5.907901734260000E-01   5.967277133809999E-01
   6.027249266040000E-01   6.087824128220000E-01   6.149007777890000E-01
   6.210806333460001E-01   6.273225974840000E-01   6.336272944040000E-01
   6.399953545820000E-01   6.464274148290000E-01   6.529241183559999E-01
   6.594861148390000E-01   6.661140604819999E-01   6.728086180870000E-01
   6.795704571150000E-01   6.864002537540000E-01   6.932986909910001E-01
   7.002664586750000E-01   7.073042535880000E-01   7.144127795160000E-01
   7.215927473170000E-01   7.288448749940000E-01   7.361698877660000E-01
   7.435685181410000E-01   7.510415059870000E-01   7.585895986090000E-01
   7.662135508230000E-01   7.739141250310000E-01   7.816920912970000E-01
   7.895482274220000E-01   7.974833190290000E-01   8.054981596320000E-01
   8.135935507220000E-01   8.217703018460000E-01   8.300292306840000E-01
   8.383711631370000E-01   8.467969334050000E-01   8.553073840720000E-01
   8.639033661910001E-01   8.725857393649999E-01   8.813553718410000E-01
   8.902131405890000E-01   8.991599313920000E-01   9.081966389380000E-01
   9.173241669050000E-01   9.265434280530001E-01   9.358553443149999E-01
   9.452608468920000E-01   9.547608763420000E-01   9.643563826740000E-01
   9.740483254490000E-01   9.838376738680000E-01   9.937254068740000E-01
   1.003712513250000E+00   1.013799991710000E+00   1.023988851020000E+00
   1.034280110060000E+00   1.044674797980000E+00   1.055173954250000E+00
   1.065778628790000E+00   1.076489882090000E+00   1.087308785270000E+00
   1.098236420230000E+00   1.109273879750000E+00   1.120422267580000E+00
   1.131682698580000E+00   1.143056298790000E+00   1.154544205570000E+00
   1.166147567750000E+00   1.177867545650000E+00   1.189705311280000E+00
   1.201662048440000E+00   1.213738952810000E+00   1.225937232080000E+00
   1.238258106100000E+00   1.250702806960000E+00   1.263272579140000E+00
   1.275968679630000E+00   1.288792378060000E+00   1.301744956790000E+00
   1.314827711110000E+00   1.328041949300000E+00   1.341388992780000E+00
   1.354870176280000E+00   1.368486847930000E+00   1.382240369410000E+00
   1.396132116070000E+00   1.410163477110000E+00   1.424335855670000E+00
   1.438650669000000E+00   1.453109348600000E+00   1.467713340350000E+00
   1.482464104650000E+00   1.497363116600000E+00   1.512411866100000E+00
   1.527611858060000E+00   1.542964612470000E+00   1.558471664630000E+00
   1.574134565260000E+00   1.589954880650000E+00   1.605934192860000E+00
   1.622074099820000E+00   1.638376215550000E+00   1.654842170260000E+00
   1.671473610570000E+00   1.688272199630000E+00   1.705239617320000E+00
   1.722377560400000E+00   1.739687742660000E+00   1.757171895150000E+00
   1.774831766290000E+00   1.792669122090000E+00   1.810685746290000E+00
   1.828883440580000E+00   1.847264024730000E+00   1.865829336830000E+00
   1.884581233420000E+00   1.903521589690000E+00   1.922652299720000E+00
   1.941975276580000E+00   1.961492452580000E+00   1.981205779460000E+00
   2.001117228570000E+00   2.021228791080000E+00   2.041542478140000E+00
   2.062060321160000E+00   2.082784371920000E+00   2.103716702860000E+00
   2.124859407220000E+00   2.146214599290000E+00   2.167784414620000E+00
   2.189571010190000E+00   2.211576564680000E+00   2.233803278670000E+00
   2.256253374860000E+00   2.278929098260000E+00   2.301832716470000E+00
   2.324966519870000E+00   2.348332821860000E+00   2.371933959090000E+00
   2.395772291690000E+00   2.419850203520000E+00   2.444170102380000E+00
   2.468734420290000E+00   2.493545613700000E+00   2.518606163750000E+00
   2.543918576520000E+00   2.569485383260000E+00   2.595309140680000E+00
   2.621392431180000E+00   2.647737863110000E+00   2.674348071030000E+00
   2.701225715980000E+00   2.728373485760000E+00   2.755794095160000E+00
   2.783490286270000E+00   2.811464828720000E+00   2.839720520000000E+00
   2.868260185700000E+00   2.897086679810000E+00   2.926202885000000E+00
   2.955611712910000E+00   2.985316104460000E+00   3.015319030110000E+00
   3.045623490180000E+00   3.076232515130000E+00   3.107149165890000E+00
   3.138376534170000E+00   3.169917742710000E+00   3.201775945670000E+00
   3.233954328890000E+00   3.266456110230000E+00   3.299284539910000E+00
   3.332442900800000E+00   3.365934508750000E+00   3.399762712960000E+00
   3.433930896270000E+00   3.468442475530000E+00   3.503300901930000E+00
   3.538509661340000E+00   3.574072274670000E+00   3.609992298200000E+00
   3.646273323970000E+00   3.682918980110000E+00   3.719932931220000E+00
   3.757318878720000E+00   3.795080561240000E+00   3.833221754980000E+00
   3.871746274080000E+00   3.910657971050000E+00   3.949960737070000E+00
   3.989658502450000E+00   4.029755237010000E+00   4.070254950450000E+00
   4.111161692770000E+00   4.152479554700000E+00   4.194212668030000E+00
   4.236365206140000E+00   4.278941384290000E+00   4.321945460140000E+00
   4.365381734140000E+00   4.409254549960000E+00   4.453568294900000E+00
   4.498327400390000E+00   4.543536342360000E+00   4.589199641750000E+00
   4.635321864940000E+00   4.681907624170000E+00   4.728961578060000E+00
   4.776488432060000E+00   4.824492938880000E+00   4.872979899010000E+00
   4.921954161190000E+00   4.971420622890000E+00   5.021384230800000E+00
   5.071849981310000E+00   5.122822921050000E+00   5.174308147350000E+00
   5.226310808770000E+00   5.278836105640000E+00   5.331889290510000E+00
   5.385475668750000E+00   5.439600599050000E+00   5.494269493940000E+00
   5.549487820360000E+00   5.605261100190000E+00   5.661594910790000E+00
   5.718494885610000E+00   5.775966714680000E+00   5.834016145240000E+00
   5.892648982270000E+00   5.951871089110000E+00   6.011688388020000E+00
   6.072106860770000E+00   6.133132549280000E+00   6.194771556150000E+00
   6.257030045330000E+00   6.319914242740000E+00   6.383430436840000E+00
   6.447584979300000E+00   6.512384285630000E+00   6.577834835820000E+00
   6.643943174970000E+00   6.710715913970000E+00   6.778159730160000E+00
   6.846281367980000E+00   6.915087639630000E+00   6.984585425810000E+00
   7.054781676350000E+00   7.125683410940000E+00   7.197297719810000E+00
   7.269631764450000E+00   7.342692778320000E+00   7.416488067590000E+00
   7.491025011850000E+00   7.566311064850000E+00   7.642353755260000E+00
   7.719160687420000E+00   7.796739542080000E+00   7.875098077190000E+00
   7.954244128670000E+00   8.034185611190001E+00   8.114930518970001E+00
   8.196486926560000E+00   8.278862989669999E+00   8.362066945990000E+00
   8.446107115960000E+00   8.530991903689999E+00   8.616729797710001E+00
   8.703329371900001E+00   8.790799286280000E+00   8.879148287910001E+00
   8.968385211770000E+00   9.058518981620001E+00   9.149558610920000E+00
   9.241513203709999E+00   9.334391955510000E+00   9.428204154299999E+00
   9.522959181350000E+00   9.618666512260001E+00   9.715335717829999E+00
   9.812976465080000E+00   9.911598518140000E+00   1.001121173930000E+01