<UPF version="2.0.1">
  <PP_INFO>
    Generated by new atomic code, or converted to UPF format
    Author: 
    Generation date: 
    Pseudopotential type: NC
    Element: C
    Functional: SLA  PW   SCAN SCAN
    Suggested minimum cutoff for wavefunctions:   0. Ry
    Suggested minimum cutoff for charge density:   0. Ry
    The Pseudo was generated with a Non-Relativistic Calculation
    L component and cutoff radius for Local Potential:  0   0.0000
    Valence configuration: 
    nl pn  l   occ       Rcut    Rcut US       E pseu
    0S  1  0  2.00      0.000      0.000     0.000000
    0P  2  1  2.00      0.000      0.000     0.000000
    Generation configuration: not available.
  </PP_INFO>
    <!-- END OF HUMAN READABLE SECTION -->
  <PP_HEADER generated="Generated by new atomic code, or converted to UPF format" author="" date="" comment="" element="C" pseudo_type="NC" relativistic="no" is_ultrasoft="false" is_paw="false" is_coulomb="false" has_so="false" has_wfc="false" has_gipaw="false" paw_as_gipaw="false" core_correction="false" functional="SLA  PW   SCAN SCAN" z_valence="4.00000000000000" total_psenergy="0.000000000000000E+000" wfc_cutoff="0.000000000000000E+000" rho_cutoff="0.000000000000000E+000" l_max="0" l_max_rho="0" l_local="0" mesh_size="1389" number_of_wfc="2" number_of_proj="1"/>
  <PP_MESH mesh="1389" dx="9.999999999998873E-003" xmin="-7.99999999999914" rmax="59.6348736181000" zmesh="6.00000000000000">
    <PP_R>
   5.591043798380000E-05   5.647234722720000E-05   5.703990375250000E-05
   5.761316431570000E-05   5.819218624330000E-05   5.877702743800000E-05
   5.936774638450000E-05   5.996440215510000E-05   6.056705441580000E-05
   6.117576343249999E-05   6.179059007649999E-05   6.241159583100000E-05
   6.303884279710000E-05   6.367239370000001E-05   6.431231189530000E-05
   6.495866137550000E-05   6.561150677580000E-05   6.627091338160000E-05
   6.693694713390001E-05   6.760967463670000E-05   6.828916316330001E-05
   6.897548066310000E-05   6.966869576850000E-05   7.036887780150000E-05
   7.107609678089999E-05   7.179042342929999E-05   7.251192917979999E-05
   7.324068618360000E-05   7.397676731709999E-05   7.472024618900000E-05
   7.547119714779999E-05   7.622969528920000E-05   7.699581646360001E-05
   7.776963728380000E-05   7.855123513260000E-05   7.934068817040000E-05
   8.013807534310000E-05   8.094347639010000E-05   8.175697185220000E-05
   8.257864307960000E-05   8.340857224010000E-05   8.424684232740000E-05
   8.509353716910001E-05   8.594874143540000E-05   8.681254064750000E-05
   8.768502118600000E-05   8.856627029970000E-05   8.945637611420000E-05
   9.035542764090000E-05   9.126351478570000E-05   9.218072835800000E-05
   9.310716007989999E-05   9.404290259540000E-05   9.498804947960000E-05
   9.594269524790001E-05   9.690693536559999E-05   9.788086625770000E-05
   9.886458531790000E-05   9.985819091900000E-05   1.008617824230000E-04
   1.018754601880000E-04   1.028993255850000E-04   1.039334810000000E-04
   1.049780298500000E-04   1.060330765900000E-04   1.070987267260000E-04
   1.081750868240000E-04   1.092622645210000E-04   1.103603685350000E-04
   1.114695086790000E-04   1.125897958660000E-04   1.137213421260000E-04
   1.148642606150000E-04   1.160186656270000E-04   1.171846726010000E-04
   1.183623981400000E-04   1.195519600180000E-04   1.207534771920000E-04
   1.219670698130000E-04   1.231928592440000E-04   1.244309680630000E-04
   1.256815200820000E-04   1.269446403580000E-04   1.282204552050000E-04
   1.295090922030000E-04   1.308106802180000E-04   1.321253494110000E-04
   1.334532312490000E-04   1.347944585210000E-04   1.361491653510000E-04
   1.375174872110000E-04   1.388995609340000E-04   1.402955247300000E-04
   1.417055181940000E-04   1.431296823290000E-04   1.445681595510000E-04
   1.460210937100000E-04   1.474886300990000E-04   1.489709154750000E-04
   1.504680980660000E-04   1.519803275920000E-04   1.535077552780000E-04
   1.550505338670000E-04   1.566088176390000E-04   1.581827624230000E-04
   1.597725256160000E-04   1.613782661940000E-04   1.630001447330000E-04
   1.646383234220000E-04   1.662929660810000E-04   1.679642381750000E-04
   1.696523068330000E-04   1.713573408620000E-04   1.730795107690000E-04
   1.748189887710000E-04   1.765759488180000E-04   1.783505666070000E-04
   1.801430196010000E-04   1.819534870470000E-04   1.837821499930000E-04
   1.856291913070000E-04   1.874947956960000E-04   1.893791497200000E-04
   1.912824418170000E-04   1.932048623170000E-04   1.951466034650000E-04
   1.971078594360000E-04   1.990888263570000E-04   2.010897023260000E-04
   2.031106874340000E-04   2.051519837790000E-04   2.072137954940000E-04
   2.092963287600000E-04   2.113997918350000E-04   2.135243950640000E-04
   2.156703509110000E-04   2.178378739730000E-04   2.200271810030000E-04
   2.222384909360000E-04   2.244720249020000E-04   2.267280062580000E-04
   2.290066606040000E-04   2.313082158060000E-04   2.336329020230000E-04
   2.359809517240000E-04   2.383525997180000E-04   2.407480831700000E-04
   2.431676416310000E-04   2.456115170590000E-04   2.480799538430000E-04
   2.505731988300000E-04   2.530915013450000E-04   2.556351132210000E-04
   2.582042888210000E-04   2.607992850660000E-04   2.634203614560000E-04
   2.660677801020000E-04   2.687418057480000E-04   2.714427057980000E-04
   2.741707503450000E-04   2.769262121960000E-04   2.797093668980000E-04
   2.825204927710000E-04   2.853598709280000E-04   2.882277853100000E-04
   2.911245227100000E-04   2.940503728060000E-04   2.970056281840000E-04
   2.999905843720000E-04   3.030055398680000E-04   3.060507961710000E-04
   3.091266578090000E-04   3.122334323700000E-04   3.153714305350000E-04
   3.185409661050000E-04   3.217423560380000E-04   3.249759204740000E-04
   3.282419827730000E-04   3.315408695440000E-04   3.348729106780000E-04
   3.382384393830000E-04   3.416377922130000E-04   3.450713091070000E-04
   3.485393334190000E-04   3.520422119550000E-04   3.555802950060000E-04
   3.591539363830000E-04   3.627634934530000E-04   3.664093271740000E-04
   3.700918021330000E-04   3.738112865810000E-04   3.775681524690000E-04
   3.813627754870000E-04   3.851955351000000E-04   3.890668145880000E-04
   3.929770010820000E-04   3.969264856030000E-04   4.009156631030000E-04
   4.049449325040000E-04   4.090146967360000E-04   4.131253627780000E-04
   4.172773417000000E-04   4.214710487050000E-04   4.257069031650000E-04
   4.299853286710000E-04   4.343067530680000E-04   4.386716085020000E-04
   4.430803314630000E-04   4.475333628260000E-04   4.520311478980000E-04
   4.565741364610000E-04   4.611627828190000E-04   4.657975458390000E-04
   4.704788890030000E-04   4.752072804470000E-04   4.799831930150000E-04
   4.848071043020000E-04   4.896794967040000E-04   4.946008574630000E-04
   4.995716787210000E-04   5.045924575630000E-04   5.096636960710000E-04
   5.147859013730000E-04   5.199595856940000E-04   5.251852664070000E-04
   5.304634660850000E-04   5.357947125510000E-04   5.411795389350000E-04
   5.466184837240000E-04   5.521120908170000E-04   5.576609095790000E-04
   5.632654948960000E-04   5.689264072330000E-04   5.746442126840000E-04
   5.804194830350000E-04   5.862527958190000E-04   5.921447343700000E-04
   5.980958878890000E-04   6.041068514940000E-04   6.101782262890000E-04
   6.163106194140000E-04   6.225046441150000E-04   6.287609197990000E-04
   6.350800720990001E-04   6.414627329350000E-04   6.479095405790000E-04
   6.544211397179999E-04   6.609981815150000E-04   6.676413236820000E-04
   6.743512305370000E-04   6.811285730770001E-04   6.879740290430000E-04
   6.948882829840000E-04   7.018720263330000E-04   7.089259574690000E-04
   7.160507817920000E-04   7.232472117900000E-04   7.305159671109999E-04
   7.378577746390000E-04   7.452733685579999E-04   7.527634904349999E-04
   7.603288892890000E-04   7.679703216650000E-04   7.756885517140000E-04
   7.834843512640000E-04   7.913584999020000E-04   7.993117850490000E-04
   8.073450020410000E-04   8.154589542070000E-04   8.236544529469999E-04
   8.319323178180000E-04   8.402933766150000E-04   8.487384654500000E-04
   8.572684288379999E-04   8.658841197840000E-04   8.745863998640000E-04
   8.833761393120000E-04   8.922542171100000E-04   9.012215210730000E-04
   9.102789479400000E-04   9.194274034600000E-04   9.286678024870000E-04
   9.380010690670000E-04   9.474281365370000E-04   9.569499476090000E-04
   9.665674544740000E-04   9.762816188890000E-04   9.860934122800000E-04
   9.960038158340000E-04   1.006013820600000E-03   1.016124427590000E-03
   1.026336647860000E-03   1.036651502660000E-03   1.047070023470000E-03
   1.057593252150000E-03   1.068222241040000E-03   1.078958053050000E-03
   1.089801761760000E-03   1.100754451550000E-03   1.111817217710000E-03
   1.122991166510000E-03   1.134277415370000E-03   1.145677092920000E-03
   1.157191339120000E-03   1.168821305430000E-03   1.180568154840000E-03
   1.192433062050000E-03   1.204417213560000E-03   1.216521807800000E-03
   1.228748055230000E-03   1.241097178490000E-03   1.253570412500000E-03
   1.266169004600000E-03   1.278894214650000E-03   1.291747315190000E-03
   1.304729591540000E-03   1.317842341930000E-03   1.331086877660000E-03
   1.344464523180000E-03   1.357976616280000E-03   1.371624508170000E-03
   1.385409563650000E-03   1.399333161250000E-03   1.413396693330000E-03
   1.427601566250000E-03   1.441949200520000E-03   1.456441030910000E-03
   1.471078506620000E-03   1.485863091410000E-03   1.500796263740000E-03
   1.515879516950000E-03   1.531114359370000E-03   1.546502314510000E-03
   1.562044921170000E-03   1.577743733620000E-03   1.593600321760000E-03
   1.609616271260000E-03   1.625793183720000E-03   1.642132676860000E-03
   1.658636384640000E-03   1.675305957440000E-03   1.692143062230000E-03
   1.709149382730000E-03   1.726326619600000E-03   1.743676490570000E-03
   1.761200730640000E-03   1.778901092250000E-03   1.796779345460000E-03
   1.814837278090000E-03   1.833076695970000E-03   1.851499423040000E-03
   1.870107301600000E-03   1.888902192440000E-03   1.907885975080000E-03
   1.927060547910000E-03   1.946427828400000E-03   1.965989753290000E-03
   1.985748278800000E-03   2.005705380790000E-03   2.025863054990000E-03
   2.046223317180000E-03   2.066788203410000E-03   2.087559770180000E-03
   2.108540094670000E-03   2.129731274920000E-03   2.151135430080000E-03
   2.172754700570000E-03   2.194591248350000E-03   2.216647257070000E-03
   2.238924932370000E-03   2.261426502030000E-03   2.284154216230000E-03
   2.307110347750000E-03   2.330297192220000E-03   2.353717068360000E-03
   2.377372318170000E-03   2.401265307190000E-03   2.425398424740000E-03
   2.449774084150000E-03   2.474394723010000E-03   2.499262803410000E-03
   2.524380812170000E-03   2.549751261120000E-03   2.575376687320000E-03
   2.601259653330000E-03   2.627402747480000E-03   2.653808584090000E-03
   2.680479803760000E-03   2.707419073660000E-03   2.734629087720000E-03
   2.762112566960000E-03   2.789872259760000E-03   2.817910942120000E-03
   2.846231417910000E-03   2.874836519220000E-03   2.903729106580000E-03
   2.932912069270000E-03   2.962388325610000E-03   2.992160823250000E-03
   3.022232539470000E-03   3.052606481460000E-03   3.083285686640000E-03
   3.114273222960000E-03   3.145572189190000E-03   3.177185715270000E-03
   3.209116962560000E-03   3.241369124230000E-03   3.273945425510000E-03
   3.306849124060000E-03   3.340083510280000E-03   3.373651907630000E-03
   3.407557672990000E-03   3.441804196950000E-03   3.476394904200000E-03
   3.511333253840000E-03   3.546622739730000E-03   3.582266890850000E-03
   3.618269271640000E-03   3.654633482380000E-03   3.691363159510000E-03
   3.728461976030000E-03   3.765933641850000E-03   3.803781904180000E-03
   3.842010547870000E-03   3.880623395820000E-03   3.919624309330000E-03
   3.959017188550000E-03   3.998805972780000E-03   4.038994640950000E-03
   4.079587211940000E-03   4.120587745060000E-03   4.162000340380000E-03
   4.203829139200000E-03   4.246078324450000E-03   4.288752121060000E-03
   4.331854796460000E-03   4.375390660950000E-03   4.419364068150000E-03
   4.463779415440000E-03   4.508641144390000E-03   4.553953741220000E-03
   4.599721737210000E-03   4.645949709210000E-03   4.692642280050000E-03
   4.739804119030000E-03   4.787439942370000E-03   4.835554513700000E-03
   4.884152644510000E-03   4.933239194650000E-03   4.982819072820000E-03
   5.032897237050000E-03   5.083478695200000E-03   5.134568505460000E-03
   5.186171776840000E-03   5.238293669730000E-03   5.290939396340000E-03
   5.344114221310000E-03   5.397823462150000E-03   5.452072489840000E-03
   5.506866729310000E-03   5.562211660050000E-03   5.618112816600000E-03
   5.674575789100000E-03   5.731606223910000E-03   5.789209824120000E-03
   5.847392350140000E-03   5.906159620270000E-03   5.965517511280000E-03
   6.025471959010000E-03   6.086028958960000E-03   6.147194566870000E-03
   6.208974899370000E-03   6.271376134530000E-03   6.334404512530000E-03
   6.398066336260000E-03   6.462367971950000E-03   6.527315849830000E-03
   6.592916464730000E-03   6.659176376780000E-03   6.726102212010000E-03
   6.793700663060000E-03   6.861978489840000E-03   6.930942520200000E-03
   7.000599650570000E-03   7.070956846750000E-03   7.142021144510000E-03
   7.213799650330000E-03   7.286299542130000E-03   7.359528069950000E-03
   7.433492556710000E-03   7.508200398930000E-03   7.583659067440000E-03
   7.659876108170000E-03   7.736859142910000E-03   7.814615870000000E-03
   7.893154065190000E-03   7.972481582369999E-03   8.052606354340000E-03
   8.133536393670000E-03   8.215279793410000E-03   8.297844727980000E-03
   8.381239453930000E-03   8.465472310820000E-03   8.550551721990001E-03
   8.636486195450000E-03   8.723284324740000E-03   8.810954789729999E-03
   8.899506357530000E-03   8.988947883390001E-03   9.079288311529999E-03
   9.170536676070000E-03   9.262702101910001E-03   9.355793805690000E-03
   9.449821096640000E-03   9.544793377580000E-03   9.640720145810000E-03
   9.737610994080000E-03   9.835475611569999E-03   9.934323784820001E-03
   1.003416539870000E-02   1.013501043750000E-02   1.023686898580000E-02
   1.033975122960000E-02   1.044366745700000E-02   1.054862805990000E-02
   1.065464353450000E-02   1.076172448220000E-02   1.086988161140000E-02
   1.097912573770000E-02   1.108946778580000E-02   1.120091879000000E-02
   1.131348989530000E-02   1.142719235900000E-02   1.154203755160000E-02
   1.165803695740000E-02   1.177520217670000E-02   1.189354492610000E-02
   1.201307703980000E-02   1.213381047120000E-02   1.225575729380000E-02
   1.237892970240000E-02   1.250334001420000E-02   1.262900067050000E-02
   1.275592423730000E-02   1.288412340720000E-02   1.301361100020000E-02
   1.314439996510000E-02   1.327650338100000E-02   1.340993445830000E-02
   1.354470654010000E-02   1.368083310400000E-02   1.381832776250000E-02
   1.395720426540000E-02   1.409747650030000E-02   1.423915849460000E-02
   1.438226441660000E-02   1.452680857700000E-02   1.467280543040000E-02
   1.482026957660000E-02   1.496921576200000E-02   1.511965888160000E-02
   1.527161397960000E-02   1.542509625170000E-02   1.558012104630000E-02
   1.573670386610000E-02   1.589486036930000E-02   1.605460637170000E-02
   1.621595784830000E-02   1.637893093410000E-02   1.654354192660000E-02
   1.670980728710000E-02   1.687774364230000E-02   1.704736778590000E-02
   1.721869668050000E-02   1.739174745910000E-02   1.756653742700000E-02
   1.774308406320000E-02   1.792140502260000E-02   1.810151813750000E-02
   1.828344141930000E-02   1.846719306040000E-02   1.865279143620000E-02
   1.884025510670000E-02   1.902960281850000E-02   1.922085350630000E-02
   1.941402629560000E-02   1.960914050360000E-02   1.980621564210000E-02
   2.000527141860000E-02   2.020632773890000E-02   2.040940470880000E-02
   2.061452263620000E-02   2.082170203310000E-02   2.103096361750000E-02
   2.124232831580000E-02   2.145581726460000E-02   2.167145181310000E-02
   2.188925352470000E-02   2.210924418000000E-02   2.233144577810000E-02
   2.255588053940000E-02   2.278257090760000E-02   2.301153955180000E-02
   2.324280936920000E-02   2.347640348680000E-02   2.371234526440000E-02
   2.395065829630000E-02   2.419136641390000E-02   2.443449368840000E-02
   2.468006443260000E-02   2.492810320380000E-02   2.517863480610000E-02
   2.543168429280000E-02   2.568727696920000E-02   2.594543839470000E-02
   2.620619438560000E-02   2.646957101780000E-02   2.673559462920000E-02
   2.700429182230000E-02   2.727568946710000E-02   2.754981470360000E-02
   2.782669494450000E-02   2.810635787810000E-02   2.838883147090000E-02
   2.867414397050000E-02   2.896232390840000E-02   2.925340010280000E-02
   2.954740166160000E-02   2.984435798520000E-02   3.014429876950000E-02
   3.044725400880000E-02   3.075325399880000E-02   3.106232933990000E-02
   3.137451093980000E-02   3.168983001690000E-02   3.200831810350000E-02
   3.233000704850000E-02   3.265492902120000E-02   3.298311651390000E-02
   3.331460234590000E-02   3.364941966580000E-02   3.398760195570000E-02
   3.432918303410000E-02   3.467419705950000E-02   3.502267853350000E-02
   3.537466230450000E-02   3.573018357120000E-02   3.608927788600000E-02
   3.645198115870000E-02   3.681832965990000E-02   3.718836002470000E-02
   3.756210925660000E-02   3.793961473060000E-02   3.832091419780000E-02
   3.870604578830000E-02   3.909504801560000E-02   3.948795978040000E-02
   3.988482037400000E-02   4.028566948280000E-02   4.069054719220000E-02
   4.109949399030000E-02   4.151255077190000E-02   4.192975884330000E-02
   4.235115992550000E-02   4.277679615890000E-02   4.320671010760000E-02
   4.364094476340000E-02   4.407954355000000E-02   4.452255032760000E-02
   4.497000939740000E-02   4.542196550570000E-02   4.587846384830000E-02
   4.633955007550000E-02   4.680527029640000E-02   4.727567108330000E-02
   4.775079947670000E-02   4.823070298980000E-02   4.871542961350000E-02
   4.920502782070000E-02   4.969954657160000E-02   5.019903531870000E-02
   5.070354401110000E-02   5.121312310020000E-02   5.172782354420000E-02
   5.224769681380000E-02   5.277279489650000E-02   5.330317030270000E-02
   5.383887607040000E-02   5.437996577050000E-02   5.492649351250000E-02
   5.547851394970000E-02   5.603608228450000E-02   5.659925427420000E-02
   5.716808623650000E-02   5.774263505500000E-02   5.832295818520000E-02
   5.890911365980000E-02   5.950116009490000E-02   6.009915669550000E-02
   6.070316326190000E-02   6.131324019520000E-02   6.192944850370000E-02
   6.255184980860000E-02   6.318050635060000E-02   6.381548099590000E-02
   6.445683724240001E-02   6.510463922640000E-02   6.575895172860000E-02
   6.641984018079999E-02   6.708737067230000E-02   6.776160995680000E-02
   6.844262545870000E-02   6.913048528030000E-02   6.982525820790000E-02
   7.052701371960000E-02   7.123582199150000E-02   7.195175390480001E-02
   7.267488105360000E-02   7.340527575100000E-02   7.414301103720000E-02
   7.488816068619999E-02   7.564079921370000E-02   7.640100188420000E-02
   7.716884471850000E-02   7.794440450170000E-02   7.872775879020000E-02
   7.951898592020000E-02   8.031816501500000E-02   8.112537599330000E-02
   8.194069957680000E-02   8.276421729860001E-02   8.359601151100000E-02
   8.443616539430000E-02   8.528476296440000E-02   8.614188908190000E-02
   8.700762946020001E-02   8.788207067379999E-02   8.876530016780000E-02
   8.965740626580000E-02   9.055847817910000E-02   9.146860601570000E-02
   9.238788078910000E-02   9.331639442759999E-02   9.425423978330000E-02
   9.520151064150000E-02   9.615830173010000E-02   9.712470872900000E-02
   9.810082827970000E-02   9.908675799500000E-02   1.000825964690000E-01
   1.010884432850000E-01   1.021043990310000E-01   1.031305653010000E-01
   1.041670447140000E-01   1.052139409180000E-01   1.062713586040000E-01
   1.073394035140000E-01   1.084181824540000E-01   1.095078033030000E-01
   1.106083750230000E-01   1.117200076730000E-01   1.128428124160000E-01
   1.139769015350000E-01   1.151223884400000E-01   1.162793876790000E-01
   1.174480149530000E-01   1.186283871270000E-01   1.198206222390000E-01
   1.210248395120000E-01   1.222411593710000E-01   1.234697034470000E-01
   1.247105945960000E-01   1.259639569090000E-01   1.272299157230000E-01
   1.285085976340000E-01   1.298001305120000E-01   1.311046435110000E-01
   1.324222670840000E-01   1.337531329940000E-01   1.350973743280000E-01
   1.364551255130000E-01   1.378265223240000E-01   1.392117019020000E-01
   1.406108027660000E-01   1.420239648280000E-01   1.434513294040000E-01
   1.448930392330000E-01   1.463492384870000E-01   1.478200727860000E-01
   1.493056892160000E-01   1.508062363390000E-01   1.523218642120000E-01
   1.538527243980000E-01   1.553989699840000E-01   1.569607555970000E-01
   1.585382374170000E-01   1.601315731920000E-01   1.617409222580000E-01
   1.633664455510000E-01   1.650083056250000E-01   1.666666666670000E-01
   1.683416945140000E-01   1.700335566710000E-01   1.717424223260000E-01
   1.734684623650000E-01   1.752118493960000E-01   1.769727577580000E-01
   1.787513635420000E-01   1.805478446120000E-01   1.823623806180000E-01
   1.841951530130000E-01   1.860463450760000E-01   1.879161419300000E-01
   1.898047305540000E-01   1.917122998100000E-01   1.936390404550000E-01
   1.955851451650000E-01   1.975508085530000E-01   1.995362271870000E-01
   2.015415996100000E-01   2.035671263600000E-01   2.056130099930000E-01
   2.076794550980000E-01   2.097666683220000E-01   2.118748583870000E-01
   2.140042361150000E-01   2.161550144440000E-01   2.183274084560000E-01
   2.205216353900000E-01   2.227379146710000E-01   2.249764679290000E-01
   2.272375190220000E-01   2.295212940560000E-01   2.318280214110000E-01
   2.341579317610000E-01   2.365112580990000E-01   2.388882357600000E-01
   2.412891024440000E-01   2.437140982390000E-01   2.461634656470000E-01
   2.486374496070000E-01   2.511362975190000E-01   2.536602592700000E-01
   2.562095872580000E-01   2.587845364190000E-01   2.613853642480000E-01
   2.640123308320000E-01   2.666656988700000E-01   2.693457336990000E-01
   2.720527033260000E-01   2.747868784500000E-01   2.775485324910000E-01
   2.803379416160000E-01   2.831553847700000E-01   2.860011436970000E-01
   2.888755029780000E-01   2.917787500490000E-01   2.947111752390000E-01
   2.976730717920000E-01   3.006647359000000E-01   3.036864667320000E-01
   3.067385664640000E-01   3.098213403080000E-01   3.129350965440000E-01
   3.160801465510000E-01   3.192568048360000E-01   3.224653890670000E-01
   3.257062201060000E-01   3.289796220380000E-01   3.322859222070000E-01
   3.356254512450000E-01   3.389985431080000E-01   3.424055351070000E-01
   3.458467679460000E-01   3.493225857490000E-01   3.528333361020000E-01
   3.563793700830000E-01   3.599610422970000E-01   3.635787109160000E-01
   3.672327377090000E-01   3.709234880820000E-01   3.746513311130000E-01
   3.784166395890000E-01   3.822197900440000E-01   3.860611627970000E-01
   3.899411419880000E-01   3.938601156180000E-01   3.978184755870000E-01
   4.018166177360000E-01   4.058549418820000E-01   4.099338518590000E-01
   4.140537555640000E-01   4.182150649890000E-01   4.224181962700000E-01
   4.266635697220000E-01   4.309516098860000E-01   4.352827455710000E-01
   4.396574098920000E-01   4.440760403220000E-01   4.485390787250000E-01
   4.530469714100000E-01   4.576001691690000E-01   4.621991273270000E-01
   4.668443057830000E-01   4.715361690590000E-01   4.762751863440000E-01
   4.810618315450000E-01   4.858965833290000E-01   4.907799251780000E-01
   4.957123454270000E-01   5.006943373240000E-01   5.057263990730000E-01
   5.108090338820001E-01   5.159427500210000E-01   5.211280608640000E-01
   5.263654849480000E-01   5.316555460190000E-01   5.369987730880000E-01
   5.423957004820000E-01   5.478468678970000E-01   5.533528204560000E-01
   5.589141087580000E-01   5.645312889370000E-01   5.702049227150000E-01
   5.759355774600000E-01   5.817238262440000E-01   5.875702478940000E-01
   5.934754270590000E-01   5.994399542620000E-01   6.054644259590000E-01
   6.115494446030000E-01   6.176956187020000E-01   6.239035628770000E-01
   6.301738979280000E-01   6.365072508940000E-01   6.429042551160000E-01
   6.493655502990000E-01   6.558917825780000E-01   6.624836045820000E-01
   6.691416754990001E-01   6.758666611410000E-01   6.826592340120000E-01
   6.895200733750000E-01   6.964498653210000E-01   7.034493028330000E-01
   7.105190858610000E-01   7.176599213910000E-01   7.248725235100000E-01
   7.321576134859999E-01   7.395159198340000E-01   7.469481783900001E-01
   7.544551323860000E-01   7.620375325240000E-01   7.696961370500000E-01
   7.774317118310000E-01   7.852450304320000E-01   7.931368741900000E-01
   8.011080322960000E-01   8.091593018730000E-01   8.172914880540000E-01
   8.255054040660000E-01   8.338018713060000E-01   8.421817194270000E-01
   8.506457864230000E-01   8.591949187060000E-01   8.678299711970000E-01
   8.765518074080000E-01   8.853612995300000E-01   8.942593285200000E-01
   9.032467841890000E-01   9.123245652880000E-01   9.214935796040000E-01
   9.307547440460000E-01   9.401089847380000E-01   9.495572371120000E-01
   9.591004460010000E-01   9.687395657340000E-01   9.784755602300000E-01
   9.883094030990000E-01   9.982420777310000E-01   1.008274577400000E+00
   1.018407905370000E+00   1.028643074980000E+00   1.038981109750000E+00
   1.049423043500000E+00   1.059969920430000E+00   1.070622795240000E+00
   1.081382733210000E+00   1.092250810370000E+00   1.103228113510000E+00
   1.114315740380000E+00   1.125514799760000E+00   1.136826411550000E+00
   1.148251706930000E+00   1.159791828440000E+00   1.171447930100000E+00
   1.183221177530000E+00   1.195112748060000E+00   1.207123830860000E+00
   1.219255627050000E+00   1.231509349820000E+00   1.243886224550000E+00
   1.256387488940000E+00   1.269014393130000E+00   1.281768199810000E+00
   1.294650184380000E+00   1.307661635050000E+00   1.320803852970000E+00
   1.334078152380000E+00   1.347485860720000E+00   1.361028318760000E+00
   1.374706880770000E+00   1.388522914610000E+00   1.402477801910000E+00
   1.416572938150000E+00   1.430809732860000E+00   1.445189609740000E+00
   1.459714006790000E+00   1.474384376450000E+00   1.489202185780000E+00
   1.504168916570000E+00   1.519286065510000E+00   1.534555144310000E+00
   1.549977679910000E+00   1.565555214570000E+00   1.581289306060000E+00
   1.597181527790000E+00   1.613233469010000E+00   1.629446734920000E+00
   1.645822946860000E+00   1.662363742470000E+00   1.679070775840000E+00
   1.695945717680000E+00   1.712990255510000E+00   1.730206093790000E+00
   1.747594954120000E+00   1.765158575410000E+00   1.782898714020000E+00
   1.800817143990000E+00   1.818915657170000E+00   1.837196063440000E+00
   1.855660190840000E+00   1.874309885810000E+00   1.893147013330000E+00
   1.912173457130000E+00   1.931391119870000E+00   1.950801923330000E+00
   1.970407808610000E+00   1.990210736310000E+00   2.010212686740000E+00
   2.030415660120000E+00   2.050821676750000E+00   2.071432777260000E+00
   2.092251022780000E+00   2.113278495140000E+00   2.134517297110000E+00
   2.155969552590000E+00   2.177637406820000E+00   2.199523026610000E+00
   2.221628600530000E+00   2.243956339170000E+00   2.266508475310000E+00
   2.289287264180000E+00   2.312294983690000E+00   2.335533934620000E+00
   2.359006440900000E+00   2.382714849780000E+00   2.406661532130000E+00
   2.430848882650000E+00   2.455279320070000E+00   2.479955287480000E+00
   2.504879252480000E+00   2.530053707490000E+00   2.555481169980000E+00
   2.581164182720000E+00   2.607105314030000E+00   2.633307158040000E+00
   2.659772334970000E+00   2.686503491340000E+00   2.713503300300000E+00
   2.740774461850000E+00   2.768319703130000E+00   2.796141778690000E+00
   2.824243470760000E+00   2.852627589520000E+00   2.881296973430000E+00
   2.910254489430000E+00   2.939503033310000E+00   2.969045529940000E+00
   2.998884933590000E+00   3.029024228240000E+00   3.059466427840000E+00
   3.090214576620000E+00   3.121271749450000E+00   3.152641052040000E+00
   3.184325621370000E+00   3.216328625920000E+00   3.248653266010000E+00
   3.281302774130000E+00   3.314280415260000E+00   3.347589487200000E+00
   3.381233320870000E+00   3.415215280700000E+00   3.449538764900000E+00
   3.484207205850000E+00   3.519224070420000E+00   3.554592860340000E+00
   3.590317112500000E+00   3.626400399370000E+00   3.662846329290000E+00
   3.699658546910000E+00   3.736840733460000E+00   3.774396607200000E+00
   3.812329923740000E+00   3.850644476450000E+00   3.889344096820000E+00
   3.928432654840000E+00   3.967914059400000E+00   4.007792258680000E+00
   4.048071240520000E+00   4.088755032850000E+00   4.129847704100000E+00
   4.171353363560000E+00   4.213276161830000E+00   4.255620291230000E+00
   4.298389986200000E+00   4.341589523750000E+00   4.385223223880000E+00
   4.429295449980000E+00   4.473810609320000E+00   4.518773153440000E+00
   4.564187578650000E+00   4.610058426420000E+00   4.656390283870000E+00
   4.703187784230000E+00   4.750455607290000E+00   4.798198479870000E+00
   4.846421176300000E+00   4.895128518880000E+00   4.944325378390000E+00
   4.994016674570000E+00   5.044207376570000E+00   5.094902503510000E+00
   5.146107124950000E+00   5.197826361380000E+00   5.250065384790000E+00
   5.302829419110000E+00   5.356123740790000E+00   5.409953679310000E+00
   5.464324617710000E+00   5.519241993120000E+00   5.574711297320000E+00
   5.630738077310000E+00   5.687327935790000E+00   5.744486531810000E+00
   5.802219581270000E+00   5.860532857520000E+00   5.919432191940000E+00
   5.978923474510000E+00   6.039012654410000E+00   6.099705740610000E+00
   6.161008802470000E+00   6.222927970340000E+00   6.285469436200000E+00
   6.348639454230000E+00   6.412444341510000E+00   6.476890478560000E+00
   6.541984310050000E+00   6.607732345430000E+00   6.674141159550000E+00
   6.741217393340000E+00   6.808967754500000E+00   6.877399018100000E+00