<UPF version="2.0.1">
  <PP_INFO>
    Generated by new atomic code, or converted to UPF format
    Author: 
    Generation date: 
    Pseudopotential type: NC
    Element: Cl
    Functional:  SLA  PW   SCAN SCAN
    Suggested minimum cutoff for wavefunctions:   0. Ry
    Suggested minimum cutoff for charge density:   0. Ry
    The Pseudo was generated with a Non-Relativistic Calculation
    L component and cutoff radius for Local Potential:  0   0.0000
    Valence configuration: 
    nl pn  l   occ       Rcut    Rcut US       E pseu
    0S  1  0  2.00      0.000      0.000     0.000000
    0P  2  1  5.00      0.000      0.000     0.000000
    0D  3  2  0.00      0.000      0.000     0.000000
    Generation configuration: not available.
  </PP_INFO>
    <!-- END OF HUMAN READABLE SECTION -->
  <PP_HEADER generated="Generated by new atomic code, or converted to UPF format" author="" date="" comment="" element="Cl" pseudo_type="NC" relativistic="no" is_ultrasoft="false" is_paw="false" is_coulomb="false" has_so="false" has_wfc="false" has_gipaw="false" paw_as_gipaw="false" core_correction="false" functional=" SLA  PW   SCAN SCAN" z_valence="7.00000000000000" total_psenergy="0.000000000000000E+000" wfc_cutoff="0.000000000000000E+000" rho_cutoff="0.000000000000000E+000" l_max="1" l_max_rho="0" l_local="0" mesh_size="1493" number_of_wfc="3" number_of_proj="2"/>
  <PP_MESH mesh="1493" dx="9.999999999998552E-003" xmin="-7.99999999999855" rmax="59.5482349726000" zmesh="17.0000000000000">
    <PP_R>
   1.973309575900000E-05   1.993141666840000E-05   2.013173073620000E-05
   2.033405799380000E-05   2.053841867410000E-05   2.074483321340000E-05
   2.095332225340000E-05   2.116390664300000E-05   2.137660744090000E-05
   2.159144591740000E-05   2.180844355640000E-05   2.202762205800000E-05
   2.224900334020000E-05   2.247260954120000E-05   2.269846302190000E-05
   2.292658636780000E-05   2.315700239150000E-05   2.338973413470000E-05
   2.362480487080000E-05   2.386223810710000E-05   2.410205758700000E-05
   2.434428729290000E-05   2.458895144770000E-05   2.483607451820000E-05
   2.508568121680000E-05   2.533779650450000E-05   2.559244559290000E-05
   2.584965394720000E-05   2.610944728840000E-05   2.637185159610000E-05
   2.663689311100000E-05   2.690459833740000E-05   2.717499404600000E-05
   2.744810727670000E-05   2.772396534090000E-05   2.800259582480000E-05
   2.828402659170000E-05   2.856828578470000E-05   2.885540183020000E-05
   2.914540343980000E-05   2.943831961420000E-05   2.973417964500000E-05
   3.003301311850000E-05   3.033484991840000E-05   3.063972022850000E-05
   3.094765453620000E-05   3.125868363520000E-05   3.157283862860000E-05
   3.189015093210000E-05   3.221065227730000E-05   3.253437471460000E-05
   3.286135061640000E-05   3.319161268070000E-05   3.352519393400000E-05
   3.386212773450000E-05   3.420244777610000E-05   3.454618809090000E-05
   3.489338305340000E-05   3.524406738320000E-05   3.559827614910000E-05
   3.595604477230000E-05   3.631740903000000E-05   3.668240505880000E-05
   3.705106935870000E-05   3.742343879640000E-05   3.779955060920000E-05
   3.817944240850000E-05   3.856315218390000E-05   3.895071830660000E-05
   3.934217953360000E-05   3.973757501140000E-05   4.013694427980000E-05
   4.054032727600000E-05   4.094776433880000E-05   4.135929621210000E-05
   4.177496404960000E-05   4.219480941820000E-05   4.261887430290000E-05
   4.304720111060000E-05   4.347983267430000E-05   4.391681225750000E-05
   4.435818355840000E-05   4.480399071480000E-05   4.525427830750000E-05
   4.570909136570000E-05   4.616847537120000E-05   4.663247626270000E-05
   4.710114044070000E-05   4.757451477200000E-05   4.805264659440000E-05
   4.853558372150000E-05   4.902337444750000E-05   4.951606755170000E-05
   5.001371230390000E-05   5.051635846910000E-05   5.102405631220000E-05
   5.153685660340000E-05   5.205481062330000E-05   5.257797016760000E-05
   5.310638755270000E-05   5.364011562090000E-05   5.417920774530000E-05
   5.472371783560000E-05   5.527370034330000E-05   5.582921026710000E-05
   5.639030315850000E-05   5.695703512710000E-05   5.752946284680000E-05
   5.810764356070000E-05   5.869163508730000E-05   5.928149582640000E-05
   5.987728476440000E-05   6.047906148090000E-05   6.108688615380000E-05
   6.170081956629999E-05   6.232092311220000E-05   6.294725880230000E-05
   6.357988927080001E-05   6.421887778110000E-05   6.486428823279999E-05
   6.551618516730001E-05   6.617463377500000E-05   6.683969990120000E-05
   6.751145005300001E-05   6.818995140620001E-05   6.887527181120001E-05
   6.956747980090000E-05   7.026664459650000E-05   7.097283611520000E-05
   7.168612497660000E-05   7.240658251020000E-05   7.313428076240000E-05
   7.386929250370001E-05   7.461169123569999E-05   7.536155119910001E-05
   7.611894738030000E-05   7.688395551980000E-05   7.765665211889999E-05
   7.843711444780000E-05   7.922542055360000E-05   8.002164926750001E-05
   8.082588021299999E-05   8.163819381389999E-05   8.245867130220000E-05
   8.328739472630000E-05   8.412444695930000E-05   8.496991170710000E-05
   8.582387351690000E-05   8.668641778550001E-05   8.755763076820000E-05
   8.843759958689999E-05   8.932641223930001E-05   9.022415760730000E-05
   9.113092546630001E-05   9.204680649380000E-05   9.297189227859999E-05
   9.390627533010001E-05   9.485004908750000E-05   9.580330792870000E-05
   9.676614718060000E-05   9.773866312789999E-05   9.872095302289999E-05
   9.971311509550000E-05   1.007152485630000E-04   1.017274536390000E-04
   1.027498315450000E-04   1.037824845200000E-04   1.048255158290000E-04
   1.058790297780000E-04   1.069431317180000E-04   1.080179280610000E-04
   1.091035262860000E-04   1.102000349540000E-04   1.113075637180000E-04
   1.124262233310000E-04   1.135561256600000E-04   1.146973836970000E-04
   1.158501115670000E-04   1.170144245450000E-04   1.181904390630000E-04
   1.193782727230000E-04   1.205780443100000E-04   1.217898738020000E-04
   1.230138823830000E-04   1.242501924550000E-04   1.254989276490000E-04
   1.267602128410000E-04   1.280341741600000E-04   1.293209390030000E-04
   1.306206360470000E-04   1.319333952640000E-04   1.332593479300000E-04
   1.345986266420000E-04   1.359513653300000E-04   1.373176992660000E-04
   1.386977650880000E-04   1.400917008010000E-04   1.414996458010000E-04
   1.429217408840000E-04   1.443581282600000E-04   1.458089515690000E-04
   1.472743558940000E-04   1.487544877780000E-04   1.502494952350000E-04
   1.517595277660000E-04   1.532847363770000E-04   1.548252735890000E-04
   1.563812934570000E-04   1.579529515860000E-04   1.595404051400000E-04
   1.611438128690000E-04   1.627633351130000E-04   1.643991338260000E-04
   1.660513725890000E-04   1.677202166280000E-04   1.694058328290000E-04
   1.711083897540000E-04   1.728280576600000E-04   1.745650085170000E-04
   1.763194160190000E-04   1.780914556100000E-04   1.798813044950000E-04
   1.816891416610000E-04   1.835151478920000E-04   1.853595057910000E-04
   1.872223997950000E-04   1.891040161950000E-04   1.910045431540000E-04
   1.929241707260000E-04   1.948630908760000E-04   1.968214974980000E-04
   1.987995864340000E-04   2.007975554940000E-04   2.028156044770000E-04
   2.048539351890000E-04   2.069127514650000E-04   2.089922591890000E-04
   2.110926663140000E-04   2.132141828800000E-04   2.153570210430000E-04
   2.175213950870000E-04   2.197075214520000E-04   2.219156187520000E-04
   2.241459078000000E-04   2.263986116240000E-04   2.286739554990000E-04
   2.309721669590000E-04   2.332934758290000E-04   2.356381142410000E-04
   2.380063166600000E-04   2.403983199100000E-04   2.428143631910000E-04
   2.452546881120000E-04   2.477195387060000E-04   2.502091614600000E-04
   2.527238053380000E-04   2.552637218080000E-04   2.578291648630000E-04
   2.604203910490000E-04   2.630376594910000E-04   2.656812319180000E-04
   2.683513726900000E-04   2.710483488230000E-04   2.737724300170000E-04
   2.765238886810000E-04   2.793029999650000E-04   2.821100417820000E-04
   2.849452948380000E-04   2.878090426610000E-04   2.907015716280000E-04
   2.936231709950000E-04   2.965741329230000E-04   2.995547525120000E-04
   3.025653278250000E-04   3.056061599240000E-04   3.086775528930000E-04
   3.117798138750000E-04   3.149132530980000E-04   3.180781839080000E-04
   3.212749228020000E-04   3.245037894570000E-04   3.277651067600000E-04
   3.310592008470000E-04   3.343864011310000E-04   3.377470403330000E-04
   3.411414545200000E-04   3.445699831370000E-04   3.480329690400000E-04
   3.515307585300000E-04   3.550637013880000E-04   3.586321509130000E-04
   3.622364639510000E-04   3.658770009380000E-04   3.695541259290000E-04
   3.732682066420000E-04   3.770196144860000E-04   3.808087246050000E-04
   3.846359159150000E-04   3.885015711360000E-04   3.924060768390000E-04
   3.963498234760000E-04   4.003332054250000E-04   4.043566210290000E-04
   4.084204726320000E-04   4.125251666230000E-04   4.166711134740000E-04
   4.208587277830000E-04   4.250884283160000E-04   4.293606380460000E-04
   4.336757841980000E-04   4.380342982900000E-04   4.424366161760000E-04
   4.468831780930000E-04   4.513744287000000E-04   4.559108171260000E-04
   4.604927970130000E-04   4.651208265640000E-04   4.697953685860000E-04
   4.745168905350000E-04   4.792858645690000E-04   4.841027675890000E-04
   4.889680812900000E-04   4.938822922050000E-04   4.988458917620000E-04
   5.038593763230001E-04   5.089232472420000E-04   5.140380109100000E-04
   5.192041788070000E-04   5.244222675550000E-04   5.296927989670000E-04
   5.350163001000000E-04   5.403933033090000E-04   5.458243462980000E-04
   5.513099721770000E-04   5.568507295120000E-04   5.624471723850000E-04
   5.680998604430000E-04   5.738093589610000E-04   5.795762388930000E-04
   5.854010769320000E-04   5.912844555670000E-04   5.972269631390000E-04
   6.032291939060000E-04   6.092917480950000E-04   6.154152319660000E-04
   6.216002578740000E-04   6.278474443250000E-04   6.341574160440000E-04
   6.405308040330000E-04   6.469682456360000E-04   6.534703846019999E-04
   6.600378711520000E-04   6.666713620390000E-04   6.733715206180000E-04
   6.801390169100001E-04   6.869745276700000E-04   6.938787364560000E-04
   7.008523336940000E-04   7.078960167480000E-04   7.150104899950000E-04
   7.221964648860000E-04   7.294546600260000E-04   7.367858012400000E-04
   7.441906216470000E-04   7.516698617370000E-04   7.592242694400000E-04
   7.668546002020001E-04   7.745616170640000E-04   7.823460907320000E-04
   7.902087996610000E-04   7.981505301290000E-04   8.061720763160000E-04
   8.142742403810000E-04   8.224578325490000E-04   8.307236711860000E-04
   8.390725828820000E-04   8.475054025360000E-04   8.560229734360000E-04
   8.646261473470000E-04   8.733157845930000E-04   8.820927541460000E-04
   8.909579337090000E-04   8.999122098070000E-04   9.089564778770000E-04
   9.180916423520000E-04   9.273186167560000E-04   9.366383237950000E-04
   9.460516954460000E-04   9.555596730560000E-04   9.651632074290000E-04
   9.748632589270000E-04   9.846607975639999E-04   9.945568031000001E-04
   1.004552265150000E-03   1.014648183260000E-03   1.024845567030000E-03
   1.035145436210000E-03   1.045548820800000E-03   1.056056761150000E-03
   1.066670308050000E-03   1.077390522870000E-03   1.088218477640000E-03
   1.099155255160000E-03   1.110201949130000E-03   1.121359664210000E-03
   1.132629516200000E-03   1.144012632080000E-03   1.155510150180000E-03
   1.167123220260000E-03   1.178853003630000E-03   1.190700673280000E-03
   1.202667414000000E-03   1.214754422450000E-03   1.226962907370000E-03
   1.239294089590000E-03   1.251749202260000E-03   1.264329490890000E-03
   1.277036213520000E-03   1.289870640840000E-03   1.302834056300000E-03
   1.315927756250000E-03   1.329153050070000E-03   1.342511260300000E-03
   1.356003722780000E-03   1.369631786760000E-03   1.383396815060000E-03
   1.397300184190000E-03   1.411343284510000E-03   1.425527520330000E-03
   1.439854310100000E-03   1.454325086490000E-03   1.468941296600000E-03
   1.483704402070000E-03   1.498615879220000E-03   1.513677219200000E-03
   1.528889928160000E-03   1.544255527390000E-03   1.559775553460000E-03
   1.575451558390000E-03   1.591285109790000E-03   1.607277791020000E-03
   1.623431201370000E-03   1.639746956190000E-03   1.656226687080000E-03
   1.672872042010000E-03   1.689684685540000E-03   1.706666298950000E-03
   1.723818580410000E-03   1.741143245170000E-03   1.758642025700000E-03
   1.776316671900000E-03   1.794168951250000E-03   1.812200648990000E-03
   1.830413568300000E-03   1.848809530490000E-03   1.867390375180000E-03
   1.886157960460000E-03   1.905114163110000E-03   1.924260878770000E-03
   1.943600022110000E-03   1.963133527080000E-03   1.982863347030000E-03
   2.002791454980000E-03   2.022919843730000E-03   2.043250526160000E-03
   2.063785535340000E-03   2.084526924800000E-03   2.105476768690000E-03
   2.126637162000000E-03   2.148010220810000E-03   2.169598082430000E-03
   2.191402905660000E-03   2.213426871010000E-03   2.235672180890000E-03
   2.258141059860000E-03   2.280835754810000E-03   2.303758535230000E-03
   2.326911693440000E-03   2.350297544740000E-03   2.373918427770000E-03
   2.397776704610000E-03   2.421874761120000E-03   2.446215007130000E-03
   2.470799876670000E-03   2.495631828270000E-03   2.520713345120000E-03
   2.546046935410000E-03   2.571635132510000E-03   2.597480495280000E-03
   2.623585608250000E-03   2.649953081970000E-03   2.676585553210000E-03
   2.703485685240000E-03   2.730656168080000E-03   2.758099718820000E-03
   2.785819081830000E-03   2.813817029070000E-03   2.842096360360000E-03
   2.870659903650000E-03   2.899510515320000E-03   2.928651080460000E-03
   2.958084513150000E-03   2.987813756760000E-03   3.017841784230000E-03
   3.048171598400000E-03   3.078806232260000E-03   3.109748749310000E-03
   3.141002243840000E-03   3.172569841200000E-03   3.204454698190000E-03
   3.236660003320000E-03   3.269188977150000E-03   3.302044872600000E-03
   3.335230975290000E-03   3.368750603850000E-03   3.402607110280000E-03
   3.436803880260000E-03   3.471344333500000E-03   3.506231924060000E-03
   3.541470140730000E-03   3.577062507370000E-03   3.613012583240000E-03
   3.649323963370000E-03   3.686000278950000E-03   3.723045197630000E-03
   3.760462423920000E-03   3.798255699600000E-03   3.836428804010000E-03
   3.874985554490000E-03   3.913929806770000E-03   3.953265455280000E-03
   3.992996433630000E-03   4.033126714960000E-03   4.073660312310000E-03
   4.114601279100000E-03   4.155953709440000E-03   4.197721738610000E-03
   4.239909543460000E-03   4.282521342790000E-03   4.325561397830000E-03
   4.369034012610000E-03   4.412943534430000E-03   4.457294354290000E-03
   4.502090907290000E-03   4.547337673140000E-03   4.593039176540000E-03
   4.639199987690000E-03   4.685824722700000E-03   4.732918044090000E-03
   4.780484661230000E-03   4.828529330820000E-03   4.877056857360000E-03
   4.926072093660000E-03   4.975579941270000E-03   5.025585351020000E-03
   5.076093323490000E-03   5.127108909530000E-03   5.178637210730000E-03
   5.230683379960000E-03   5.283252621900000E-03   5.336350193490000E-03
   5.389981404560000E-03   5.444151618260000E-03   5.498866251650000E-03
   5.554130776250000E-03   5.609950718560000E-03   5.666331660620000E-03
   5.723279240560000E-03   5.780799153200000E-03   5.838897150570000E-03
   5.897579042520000E-03   5.956850697290000E-03   6.016718042090000E-03
   6.077187063710000E-03   6.138263809100000E-03   6.199954385990000E-03
   6.262264963490000E-03   6.325201772690000E-03   6.388771107350000E-03
   6.452979324440000E-03   6.517832844840000E-03   6.583338153960000E-03
   6.649501802380000E-03   6.716330406520000E-03   6.783830649300000E-03
   6.852009280790000E-03   6.920873118930000E-03   6.990429050140000E-03
   7.060684030090000E-03   7.131645084320000E-03   7.203319309000000E-03
   7.275713871610000E-03   7.348836011680000E-03   7.422693041470000E-03
   7.497292346750000E-03   7.572641387520000E-03   7.648747698730000E-03
   7.725618891090000E-03   7.803262651770000E-03   7.881686745219999E-03
   7.960899013919999E-03   8.040907379150000E-03   8.121719841820000E-03
   8.203344483240000E-03   8.285789465940000E-03   8.369063034500000E-03
   8.453173516340000E-03   8.538129322570000E-03   8.623938948840001E-03
   8.710610976200000E-03   8.798154071920000E-03   8.886576990370000E-03
   8.975888573930000E-03   9.066097753830001E-03   9.157213551060001E-03
   9.249245077270001E-03   9.342201535700000E-03   9.436092222070000E-03
   9.530926525519999E-03   9.626713929569999E-03   9.723464013030000E-03
   9.821186451000000E-03   9.919891015800000E-03   1.001958757800000E-02
   1.012028610720000E-02   1.022199667360000E-02   1.032472944810000E-02
   1.042849470410000E-02   1.053330281830000E-02   1.063916427160000E-02
   1.074608965020000E-02   1.085408964660000E-02   1.096317506110000E-02
   1.107335680230000E-02   1.118464588830000E-02   1.129705344830000E-02
   1.141059072300000E-02   1.152526906630000E-02   1.164109994610000E-02
   1.175809494560000E-02   1.187626576440000E-02   1.199562421970000E-02
   1.211618224730000E-02   1.223795190340000E-02   1.236094536480000E-02
   1.248517493100000E-02   1.261065302510000E-02   1.273739219510000E-02
   1.286540511480000E-02   1.299470458580000E-02   1.312530353810000E-02
   1.325721503170000E-02   1.339045225790000E-02   1.352502854040000E-02
   1.366095733700000E-02   1.379825224080000E-02   1.393692698130000E-02
   1.407699542610000E-02   1.421847158220000E-02   1.436136959730000E-02
   1.450570376130000E-02   1.465148850770000E-02   1.479873841530000E-02
   1.494746820900000E-02   1.509769276200000E-02   1.524942709680000E-02
   1.540268638710000E-02   1.555748595880000E-02   1.571384129210000E-02
   1.587176802260000E-02   1.603128194320000E-02   1.619239900530000E-02
   1.635513532080000E-02   1.651950716340000E-02   1.668553097060000E-02
   1.685322334470000E-02   1.702260105520000E-02   1.719368104010000E-02
   1.736648040730000E-02   1.754101643710000E-02   1.771730658310000E-02
   1.789536847450000E-02   1.807521991770000E-02   1.825687889800000E-02
   1.844036358130000E-02   1.862569231640000E-02   1.881288363630000E-02
   1.900195626010000E-02   1.919292909550000E-02   1.938582123970000E-02
   1.958065198220000E-02   1.977744080630000E-02   1.997620739090000E-02
   2.017697161290000E-02   2.037975354880000E-02   2.058457347710000E-02
   2.079145187990000E-02   2.100040944520000E-02   2.121146706900000E-02
   2.142464585710000E-02   2.163996712770000E-02   2.185745241310000E-02
   2.207712346180000E-02   2.229900224140000E-02   2.252311093970000E-02
   2.274947196790000E-02   2.297810796230000E-02   2.320904178660000E-02
   2.344229653440000E-02   2.367789553140000E-02   2.391586233770000E-02
   2.415622075010000E-02   2.439899480480000E-02   2.464420877930000E-02
   2.489188719520000E-02   2.514205482050000E-02   2.539473667230000E-02
   2.564995801890000E-02   2.590774438270000E-02   2.616812154250000E-02
   2.643111553630000E-02   2.669675266370000E-02   2.696505948850000E-02
   2.723606284180000E-02   2.750978982410000E-02   2.778626780830000E-02
   2.806552444240000E-02   2.834758765240000E-02   2.863248564470000E-02
   2.892024690950000E-02   2.921090022300000E-02   2.950447465090000E-02
   2.980099955090000E-02   3.010050457570000E-02   3.040301967600000E-02
   3.070857510360000E-02   3.101720141430000E-02   3.132892947100000E-02
   3.164379044670000E-02   3.196181582790000E-02   3.228303741730000E-02
   3.260748733730000E-02   3.293519803330000E-02   3.326620227640000E-02
   3.360053316760000E-02   3.393822414000000E-02   3.427930896320000E-02
   3.462382174580000E-02   3.497179693940000E-02   3.532326934190000E-02
   3.567827410070000E-02   3.603684671670000E-02   3.639902304740000E-02
   3.676483931070000E-02   3.713433208860000E-02   3.750753833070000E-02
   3.788449535780000E-02   3.826524086610000E-02   3.864981293030000E-02
   3.903825000800000E-02   3.943059094330000E-02   3.982687497050000E-02
   4.022714171840000E-02   4.063143121400000E-02   4.103978388650000E-02
   4.145224057170000E-02   4.186884251540000E-02   4.228963137830000E-02
   4.271464923960000E-02   4.314393860140000E-02   4.357754239300000E-02
   4.401550397520000E-02   4.445786714450000E-02   4.490467613750000E-02
   4.535597563550000E-02   4.581181076890000E-02   4.627222712160000E-02
   4.673727073550000E-02   4.720698811540000E-02   4.768142623350000E-02
   4.816063253400000E-02   4.864465493780000E-02   4.913354184770000E-02
   4.962734215270000E-02   5.012610523330000E-02   5.062988096620000E-02
   5.113871972930000E-02   5.165267240710000E-02   5.217179039510000E-02
   5.269612560570000E-02   5.322573047270000E-02   5.376065795710000E-02
   5.430096155220000E-02   5.484669528860000E-02   5.539791374020000E-02
   5.595467202950000E-02   5.651702583250000E-02   5.708503138520000E-02
   5.765874548860000E-02   5.823822551470000E-02   5.882352941180000E-02
   5.941471571080000E-02   6.001184353100000E-02   6.061497258550000E-02
   6.122416318780000E-02   6.183947625740000E-02   6.246097332620000E-02
   6.308871654440000E-02   6.372276868680000E-02   6.436319315910000E-02
   6.501005400440001E-02   6.566341590930000E-02   6.632334421060000E-02
   6.698990490140000E-02   6.766316463869999E-02   6.834319074870000E-02
   6.903005123479999E-02   6.972381478360000E-02   7.042455077190000E-02
   7.113232927400000E-02   7.184722106820000E-02   7.256929764450000E-02
   7.329863121100000E-02   7.403529470170001E-02   7.477936178360001E-02
   7.553090686400001E-02   7.629000509800000E-02   7.705673239610000E-02
   7.783116543160000E-02   7.861338164860000E-02   7.940345926920001E-02
   8.020147730190000E-02   8.100751554919999E-02   8.182165461550001E-02
   8.264397591550000E-02   8.347456168200000E-02   8.431349497410000E-02
   8.516085968610000E-02   8.601674055500000E-02   8.688122316959999E-02
   8.775439397890000E-02   8.863634030080000E-02   8.952715033050000E-02
   9.042691314990001E-02   9.133571873599999E-02   9.225365797000000E-02
   9.318082264670000E-02   9.411730548340000E-02   9.506320012900001E-02
   9.601860117380000E-02   9.698360415880000E-02   9.795830558510001E-02
   9.894280292350000E-02   9.993719462460000E-02   1.009415801290000E-01
   1.019560598750000E-01   1.029807353120000E-01   1.040157089080000E-01
   1.050610841620000E-01   1.061169656120000E-01   1.071834588470000E-01
   1.082606705170000E-01   1.093487083440000E-01   1.104476811330000E-01
   1.115576987830000E-01   1.126788722950000E-01   1.138113137880000E-01
   1.149551365080000E-01   1.161104548370000E-01   1.172773843080000E-01
   1.184560416160000E-01   1.196465446260000E-01   1.208490123910000E-01
   1.220635651570000E-01   1.232903243820000E-01   1.245294127420000E-01
   1.257809541470000E-01   1.270450737520000E-01   1.283218979700000E-01
   1.296115544860000E-01   1.309141722640000E-01   1.322298815690000E-01
   1.335588139720000E-01   1.349011023680000E-01   1.362568809870000E-01
   1.376262854070000E-01   1.390094525710000E-01   1.404065207960000E-01
   1.418176297890000E-01   1.432429206640000E-01   1.446825359500000E-01
   1.461366196110000E-01   1.476053170550000E-01   1.490887751540000E-01
   1.505871422550000E-01   1.521005681950000E-01   1.536292043190000E-01
   1.551732034910000E-01   1.567327201130000E-01   1.583079101380000E-01
   1.598989310860000E-01   1.615059420600000E-01   1.631291037630000E-01
   1.647685785120000E-01   1.664245302560000E-01   1.680971245920000E-01
   1.697865287800000E-01   1.714929117630000E-01   1.732164441800000E-01
   1.749572983860000E-01   1.767156484670000E-01   1.784916702610000E-01
   1.802855413700000E-01   1.820974411840000E-01   1.839275508930000E-01
   1.857760535110000E-01   1.876431338890000E-01   1.895289787370000E-01
   1.914337766410000E-01   1.933577180810000E-01   1.953009954550000E-01
   1.972638030910000E-01   1.992463372720000E-01   2.012487962520000E-01
   2.032713802800000E-01   2.053142916150000E-01   2.073777345510000E-01
   2.094619154330000E-01   2.115670426810000E-01   2.136933268090000E-01
   2.158409804480000E-01   2.180102183650000E-01   2.202012574860000E-01
   2.224143169160000E-01   2.246496179630000E-01   2.269073841590000E-01
   2.291878412820000E-01   2.314912173810000E-01   2.338177427940000E-01
   2.361676501760000E-01   2.385411745200000E-01   2.409385531810000E-01
   2.433600258970000E-01   2.458058348190000E-01   2.482762245290000E-01
   2.507714420690000E-01   2.532917369610000E-01   2.558373612390000E-01
   2.584085694660000E-01   2.610056187650000E-01   2.636287688430000E-01
   2.662782820180000E-01   2.689544232440000E-01   2.716574601350000E-01
   2.743876629990000E-01   2.771453048580000E-01   2.799306614790000E-01
   2.827440113990000E-01   2.855856359550000E-01   2.884558193130000E-01
   2.913548484940000E-01   2.942830134020000E-01   2.972406068570000E-01
   3.002279246200000E-01   3.032452654260000E-01   3.062929310110000E-01
   3.093712261440000E-01   3.124804586580000E-01   3.156209394780000E-01
   3.187929826550000E-01   3.219969053960000E-01   3.252330280960000E-01
   3.285016743690000E-01   3.318031710840000E-01   3.351378483920000E-01
   3.385060397650000E-01   3.419080820240000E-01   3.453443153750000E-01
   3.488150834470000E-01   3.523207333170000E-01   3.558616155540000E-01
   3.594380842490000E-01   3.630504970520000E-01   3.666992152070000E-01
   3.703846035900000E-01   3.741070307410000E-01   3.778668689080000E-01
   3.816644940760000E-01   3.855002860110000E-01   3.893746282970000E-01
   3.932879083690000E-01   3.972405175610000E-01   4.012328511350000E-01
   4.052653083280000E-01   4.093382923900000E-01   4.134522106230000E-01
   4.176074744210000E-01   4.218044993150000E-01   4.260437050090000E-01
   4.303255154300000E-01   4.346503587610000E-01   4.390186674890000E-01
   4.434308784510000E-01   4.478874328690000E-01   4.523887764050000E-01
   4.569353591950000E-01   4.615276359010000E-01   4.661660657560000E-01
   4.708511126060000E-01   4.755832449590000E-01   4.803629360330000E-01
   4.851906638020000E-01   4.900669110400000E-01   4.949921653790000E-01
   4.999669193460000E-01   5.049916704220000E-01   5.100669210860000E-01
   5.151931788670000E-01   5.203709563950000E-01   5.256007714530000E-01
   5.308831470260000E-01   5.362186113550000E-01   5.416076979930000E-01
   5.470509458520000E-01   5.525488992610000E-01   5.581021080210000E-01
   5.637111274570000E-01   5.693765184750000E-01   5.750988476190000E-01
   5.808786871279999E-01   5.867166149890000E-01   5.926132150009999E-01
   5.985690768280000E-01   6.045847960610000E-01   6.106609742780000E-01
   6.167982191019999E-01   6.229971442609999E-01   6.292583696539999E-01
   6.355825214080000E-01   6.419702319440000E-01   6.484221400380000E-01
   6.549388908860000E-01   6.615211361700000E-01   6.681695341180000E-01
   6.748847495760000E-01   6.816674540720000E-01   6.885183258810000E-01
   6.954380500970000E-01   7.024273186970000E-01   7.094868306140000E-01
   7.166172918060000E-01   7.238194153240000E-01   7.310939213870000E-01
   7.384415374510001E-01   7.458629982840000E-01   7.533590460389999E-01
   7.609304303260001E-01   7.685779082899999E-01   7.763022446860000E-01
   7.841042119530000E-01   7.919845902940000E-01   7.999441677550000E-01
   8.079837402990000E-01   8.161041118900000E-01   8.243060945730000E-01
   8.325905085520000E-01   8.409581822750000E-01   8.494099525180000E-01
   8.579466644640000E-01   8.665691717910000E-01   8.752783367570000E-01
   8.840750302870000E-01   8.929601320560000E-01   9.019345305830000E-01
   9.109991233140000E-01   9.201548167169999E-01   9.294025263680000E-01
   9.387431770470001E-01   9.481777028250000E-01   9.577070471640000E-01
   9.673321630060000E-01   9.770540128700000E-01   9.868735689490000E-01
   9.967918132080000E-01   1.006809737480000E+00   1.016928343560000E+00
   1.027148643330000E+00   1.037471658810000E+00   1.047898422330000E+00
   1.058429976560000E+00   1.069067374670000E+00   1.079811680410000E+00
   1.090663968220000E+00   1.101625323330000E+00   1.112696841900000E+00
   1.123879631070000E+00   1.135174809150000E+00   1.146583505650000E+00
   1.158106861460000E+00   1.169746028920000E+00   1.181502171950000E+00
   1.193376466190000E+00   1.205370099070000E+00   1.217484269960000E+00
   1.229720190300000E+00   1.242079083680000E+00   1.254562186000000E+00
   1.267170745590000E+00   1.279906023310000E+00   1.292769292690000E+00
   1.305761840080000E+00   1.318884964750000E+00   1.332139979010000E+00
   1.345528208380000E+00   1.359050991690000E+00   1.372709681230000E+00
   1.386505642890000E+00   1.400440256260000E+00   1.414514914830000E+00
   1.428731026060000E+00   1.443090011590000E+00   1.457593307330000E+00
   1.472242363610000E+00   1.487038645350000E+00   1.501983632200000E+00
   1.517078818660000E+00   1.532325714270000E+00   1.547725843720000E+00
   1.563280747050000E+00   1.578991979760000E+00   1.594861112980000E+00
   1.610889733640000E+00   1.627079444620000E+00   1.643431864900000E+00
   1.659948629730000E+00   1.676631390810000E+00   1.693481816430000E+00
   1.710501591640000E+00   1.727692418430000E+00   1.745056015900000E+00
   1.762594120440000E+00   1.780308485850000E+00   1.798200883590000E+00
   1.816273102920000E+00   1.834526951080000E+00   1.852964253460000E+00
   1.871586853800000E+00   1.890396614400000E+00   1.909395416230000E+00
   1.928585159190000E+00   1.947967762280000E+00   1.967545163760000E+00
   1.987319321400000E+00   2.007292212630000E+00   2.027465834760000E+00
   2.047842205150000E+00   2.068423361480000E+00   2.089211361860000E+00
   2.110208285120000E+00   2.131416230970000E+00   2.152837320220000E+00
   2.174473694990000E+00   2.196327518940000E+00   2.218400977480000E+00
   2.240696277960000E+00   2.263215649940000E+00   2.285961345370000E+00
   2.308935638840000E+00   2.332140827800000E+00   2.355579232780000E+00