<UPF version="2.0.1">
  <PP_INFO>
    Generated by new atomic code, or converted to UPF format
    Author: 
    Generation date: 
    Pseudopotential type: NC
    Element: F
    Functional:  SLA  PW   SCAN SCAN
    Suggested minimum cutoff for wavefunctions:   0. Ry
    Suggested minimum cutoff for charge density:   0. Ry
    The Pseudo was generated with a Non-Relativistic Calculation
    L component and cutoff radius for Local Potential:  0   0.0000
    Valence configuration: 
    nl pn  l   occ       Rcut    Rcut US       E pseu
    0S  1  0  2.00      0.000      0.000     0.000000
    0P  2  1  5.00      0.000      0.000     0.000000
    Generation configuration: not available.
  </PP_INFO>
    <!-- END OF HUMAN READABLE SECTION -->
  <PP_HEADER generated="Generated by new atomic code, or converted to UPF format" author="" date="" comment="" element="F" pseudo_type="NC" relativistic="no" is_ultrasoft="false" is_paw="false" is_coulomb="false" has_so="false" has_wfc="false" has_gipaw="false" paw_as_gipaw="false" core_correction="false" functional=" SLA  PW   SCAN SCAN" z_valence="7.00000000000000" total_psenergy="0.000000000000000E+000" wfc_cutoff="0.000000000000000E+000" rho_cutoff="0.000000000000000E+000" l_max="0" l_max_rho="0" l_local="0" mesh_size="1431" number_of_wfc="2" number_of_proj="1"/>
  <PP_MESH mesh="1431" dx="1.000000000000012E-002" xmin="-8.00000000000004" rmax="60.5079900140000" zmesh="9.00000000000000">
    <PP_R>
   3.727362532250000E-05   3.764823148480000E-05   3.802660250170000E-05
   3.840877621050000E-05   3.879479082890000E-05   3.918468495870000E-05
   3.957849758970000E-05   3.997626810340000E-05   4.037803627720000E-05
   4.078384228830000E-05   4.119372671770000E-05   4.160773055400000E-05
   4.202589519810000E-05   4.244826246670000E-05   4.287487459690000E-05
   4.330577425030000E-05   4.374100451720000E-05   4.418060892110000E-05
   4.462463142260000E-05   4.507311642450000E-05   4.552610877550000E-05
   4.598365377540000E-05   4.644579717900000E-05   4.691258520100000E-05
   4.738406452060000E-05   4.786028228620000E-05   4.834128611990000E-05
   4.882712412240000E-05   4.931784487810000E-05   4.981349745940000E-05
   5.031413143190000E-05   5.081979685950000E-05   5.133054430910000E-05
   5.184642485590000E-05   5.236749008840000E-05   5.289379211360000E-05
   5.342538356200000E-05   5.396231759340000E-05   5.450464790140000E-05
   5.505242871970000E-05   5.560571482670000E-05   5.616456155160000E-05
   5.672902477940000E-05   5.729916095690000E-05   5.787502709830000E-05
   5.845668079070000E-05   5.904418019980000E-05   5.963758407620000E-05
   6.023695176060000E-05   6.084234319050000E-05   6.145381890530000E-05
   6.207144005330000E-05   6.269526839700000E-05   6.332536631970000E-05
   6.396179683190000E-05   6.460462357710000E-05   6.525391083840000E-05
   6.590972354530000E-05   6.657212727940000E-05   6.724118828169999E-05
   6.791697345880000E-05   6.859955039000000E-05   6.928898733330000E-05
   6.998535323310000E-05   7.068871772650000E-05   7.139915115060000E-05
   7.211672454930000E-05   7.284150968060000E-05   7.357357902360000E-05
   7.431300578580000E-05   7.505986391040001E-05   7.581422808400000E-05
   7.657617374360000E-05   7.734577708440000E-05   7.812311506740000E-05
   7.890826542690001E-05   7.970130667880001E-05   8.050231812780001E-05
   8.131137987560001E-05   8.212857282920001E-05   8.295397870850000E-05
   8.378768005480001E-05   8.462976023900000E-05   8.548030346970000E-05
   8.633939480200000E-05   8.720712014570000E-05   8.808356627410000E-05
   8.896882083250000E-05   8.986297234710000E-05   9.076611023390000E-05
   9.167832480730001E-05   9.259970728960000E-05   9.353034981980001E-05
   9.447034546300000E-05   9.541978821940000E-05   9.637877303409999E-05
   9.734739580650000E-05   9.832575339950000E-05   9.931394364990000E-05
   1.003120653770000E-04   1.013202183950000E-04   1.023385035190000E-04
   1.033670225780000E-04   1.044058784260000E-04   1.054551749490000E-04
   1.065150170770000E-04   1.075855107960000E-04   1.086667631550000E-04
   1.097588822810000E-04   1.108619773870000E-04   1.119761587830000E-04
   1.131015378880000E-04   1.142382272420000E-04   1.153863405130000E-04
   1.165459925140000E-04   1.177172992120000E-04   1.189003777380000E-04
   1.200953464000000E-04   1.213023246980000E-04   1.225214333290000E-04
   1.237527942050000E-04   1.249965304640000E-04   1.262527664800000E-04
   1.275216278780000E-04   1.288032415450000E-04   1.300977356430000E-04
   1.314052396240000E-04   1.327258842380000E-04   1.340598015510000E-04
   1.354071249560000E-04   1.367679891860000E-04   1.381425303290000E-04
   1.395308858400000E-04   1.409331945560000E-04   1.423495967090000E-04
   1.437802339410000E-04   1.452252493150000E-04   1.466847873360000E-04
   1.481589939570000E-04   1.496480166010000E-04   1.511520041720000E-04
   1.526711070690000E-04   1.542054772040000E-04   1.557552680150000E-04
   1.573206344830000E-04   1.589017331450000E-04   1.604987221130000E-04
   1.621117610870000E-04   1.637410113730000E-04   1.653866358950000E-04
   1.670487992200000E-04   1.687276675630000E-04   1.704234088140000E-04
   1.721361925470000E-04   1.738661900440000E-04   1.756135743040000E-04
   1.773785200680000E-04   1.791612038320000E-04   1.809618038650000E-04
   1.827805002300000E-04   1.846174747970000E-04   1.864729112650000E-04
   1.883469951800000E-04   1.902399139520000E-04   1.921518568730000E-04
   1.940830151400000E-04   1.960335818700000E-04   1.980037521220000E-04
   1.999937229150000E-04   2.020036932460000E-04   2.040338641140000E-04
   2.060844385400000E-04   2.081556215800000E-04   2.102476203570000E-04
   2.123606440700000E-04   2.144949040250000E-04   2.166506136490000E-04
   2.188279885160000E-04   2.210272463630000E-04   2.232486071190000E-04
   2.254922929220000E-04   2.277585281420000E-04   2.300475394040000E-04
   2.323595556130000E-04   2.346948079700000E-04   2.370535300040000E-04
   2.394359575890000E-04   2.418423289680000E-04   2.442728847830000E-04
   2.467278680890000E-04   2.492075243870000E-04   2.517121016460000E-04
   2.542418503250000E-04   2.567970234000000E-04   2.593778763920000E-04
   2.619846673880000E-04   2.646176570690000E-04   2.672771087360000E-04
   2.699632883360000E-04   2.726764644900000E-04   2.754169085180000E-04
   2.781848944670000E-04   2.809806991370000E-04   2.838046021100000E-04
   2.866568857810000E-04   2.895378353790000E-04   2.924477390010000E-04
   2.953868876420000E-04   2.983555752170000E-04   3.013540985990000E-04
   3.043827576410000E-04   3.074418552130000E-04   3.105316972260000E-04
   3.136525926680000E-04   3.168048536310000E-04   3.199887953430000E-04
   3.232047362010000E-04   3.264529978030000E-04   3.297339049760000E-04
   3.330477858140000E-04   3.363949717080000E-04   3.397757973800000E-04
   3.431906009150000E-04   3.466397237960000E-04   3.501235109380000E-04
   3.536423107230000E-04   3.571964750340000E-04   3.607863592900000E-04
   3.644123224830000E-04   3.680747272110000E-04   3.717739397190000E-04
   3.755103299310000E-04   3.792842714880000E-04   3.830961417890000E-04
   3.869463220240000E-04   3.908351972120000E-04   3.947631562470000E-04
   3.987305919260000E-04   4.027379009960000E-04   4.067854841920000E-04
   4.108737462760000E-04   4.150030960760000E-04   4.191739465320000E-04
   4.233867147320000E-04   4.276418219570000E-04   4.319396937200000E-04
   4.362807598120000E-04   4.406654543430000E-04   4.450942157880000E-04
   4.495674870250000E-04   4.540857153850000E-04   4.586493526950000E-04
   4.632588553230000E-04   4.679146842220000E-04   4.726173049790000E-04
   4.773671878610000E-04   4.821648078600000E-04   4.870106447410000E-04
   4.919051830919999E-04   4.968489123720000E-04   5.018423269570000E-04
   5.068859261930000E-04   5.119802144440000E-04   5.171257011430000E-04
   5.223229008430000E-04   5.275723332680000E-04   5.328745233660000E-04
   5.382300013610000E-04   5.436393028040000E-04   5.491029686310001E-04
   5.546215452120000E-04   5.601955844100000E-04   5.658256436330000E-04
   5.715122858920000E-04   5.772560798560000E-04   5.830575999090000E-04
   5.889174262080000E-04   5.948361447400000E-04   6.008143473820000E-04
   6.068526319600000E-04   6.129516023070000E-04   6.191118683240000E-04
   6.253340460450000E-04   6.316187576910000E-04   6.379666317390000E-04
   6.443783029820000E-04   6.508544125930000E-04   6.573956081870000E-04
   6.640025438900000E-04   6.706758804000000E-04   6.774162850570001E-04
   6.842244319080000E-04   6.911010017710000E-04   6.980466823110000E-04
   7.050621681010000E-04   7.121481606950000E-04   7.193053686990000E-04
   7.265345078390001E-04   7.338363010350000E-04   7.412114784730000E-04
   7.486607776760000E-04   7.561849435810000E-04   7.637847286110000E-04
   7.714608927500000E-04   7.792142036210000E-04   7.870454365610000E-04
   7.949553747020000E-04   8.029448090420000E-04   8.110145385320000E-04
   8.191653701520000E-04   8.273981189920000E-04   8.357136083330000E-04
   8.441126697310000E-04   8.525961430990001E-04   8.611648767929999E-04
   8.698197276919999E-04   8.785615612880001E-04   8.873912517730000E-04
   8.963096821220000E-04   9.053177441870000E-04   9.144163387800000E-04
   9.236063757690000E-04   9.328887741660000E-04   9.422644622170000E-04
   9.517343775000000E-04   9.612994670130000E-04   9.709606872750000E-04
   9.807190044140001E-04   9.905753942710000E-04   1.000530842490000E-03
   1.010586344630000E-03   1.020742906250000E-03   1.031001543010000E-03
   1.041363280780000E-03   1.051829155750000E-03   1.062400214500000E-03
   1.073077514170000E-03   1.083862122480000E-03   1.094755117910000E-03
   1.105757589760000E-03   1.116870638290000E-03   1.128095374820000E-03
   1.139432921820000E-03   1.150884413070000E-03   1.162450993710000E-03
   1.174133820430000E-03   1.185934061500000E-03   1.197852896970000E-03
   1.209891518730000E-03   1.222051130650000E-03   1.234332948690000E-03
   1.246738201070000E-03   1.259268128300000E-03   1.271923983390000E-03
   1.284707031940000E-03   1.297618552270000E-03   1.310659835530000E-03
   1.323832185870000E-03   1.337136920520000E-03   1.350575369990000E-03
   1.364148878120000E-03   1.377858802270000E-03   1.391706513450000E-03
   1.405693396450000E-03   1.419820849950000E-03   1.434090286720000E-03
   1.448503133720000E-03   1.463060832230000E-03   1.477764838050000E-03
   1.492616621580000E-03   1.507617668020000E-03   1.522769477480000E-03
   1.538073565160000E-03   1.553531461480000E-03   1.569144712240000E-03
   1.584914878780000E-03   1.600843538120000E-03   1.616932283160000E-03
   1.633182722770000E-03   1.649596482010000E-03   1.666175202280000E-03
   1.682920541450000E-03   1.699834174080000E-03   1.716917791550000E-03
   1.734173102220000E-03   1.751601831650000E-03   1.769205722720000E-03
   1.786986535840000E-03   1.804946049110000E-03   1.823086058480000E-03
   1.841408377970000E-03   1.859914839840000E-03   1.878607294750000E-03
   1.897487611940000E-03   1.916557679480000E-03   1.935819404390000E-03
   1.955274712850000E-03   1.974925550410000E-03   1.994773882170000E-03
   2.014821692980000E-03   2.035070987640000E-03   2.055523791090000E-03
   2.076182148640000E-03   2.097048126130000E-03   2.118123810180000E-03
   2.139411308380000E-03   2.160912749490000E-03   2.182630283670000E-03
   2.204566082710000E-03   2.226722340190000E-03   2.249101271760000E-03
   2.271705115330000E-03   2.294536131300000E-03   2.317596602800000E-03
   2.340888835890000E-03   2.364415159820000E-03   2.388177927230000E-03
   2.412179514430000E-03   2.436422321580000E-03   2.460908773000000E-03
   2.485641317350000E-03   2.510622427900000E-03   2.535854602790000E-03
   2.561340365250000E-03   2.587082263880000E-03   2.613082872890000E-03
   2.639344792370000E-03   2.665870648520000E-03   2.692663093970000E-03
   2.719724807960000E-03   2.747058496700000E-03   2.774666893590000E-03
   2.802552759470000E-03   2.830718882960000E-03   2.859168080710000E-03
   2.887903197640000E-03   2.916927107300000E-03   2.946242712100000E-03
   2.975852943630000E-03   3.005760762930000E-03   3.035969160810000E-03
   3.066481158140000E-03   3.097299806140000E-03   3.128428186700000E-03
   3.159869412690000E-03   3.191626628250000E-03   3.223703009130000E-03
   3.256101763000000E-03   3.288826129770000E-03   3.321879381880000E-03
   3.355264824700000E-03   3.388985796800000E-03   3.423045670310000E-03
   3.457447851230000E-03   3.492195779820000E-03   3.527292930900000E-03
   3.562742814210000E-03   3.598548974770000E-03   3.634714993220000E-03
   3.671244486210000E-03   3.708141106700000E-03   3.745408544400000E-03
   3.783050526070000E-03   3.821070815940000E-03   3.859473216080000E-03
   3.898261566760000E-03   3.937439746840000E-03   3.977011674180000E-03
   4.016981306010000E-03   4.057352639300000E-03   4.098129711250000E-03
   4.139316599580000E-03   4.180917423020000E-03   4.222936341690000E-03
   4.265377557510000E-03   4.308245314640000E-03   4.351543899890000E-03
   4.395277643160000E-03   4.439450917850000E-03   4.484068141340000E-03
   4.529133775370000E-03   4.574652326560000E-03   4.620628346800000E-03
   4.667066433720000E-03   4.713971231170000E-03   4.761347429670000E-03
   4.809199766890000E-03   4.857533028080000E-03   4.906352046630000E-03
   4.955661704470000E-03   5.005466932620000E-03   5.055772711620000E-03
   5.106584072120000E-03   5.157906095270000E-03   5.209743913330000E-03
   5.262102710130000E-03   5.314987721580000E-03   5.368404236230000E-03
   5.422357595780000E-03   5.476853195610000E-03   5.531896485320000E-03
   5.587492969290000E-03   5.643648207210000E-03   5.700367814660000E-03
   5.757657463640000E-03   5.815522883160000E-03   5.873969859820000E-03
   5.933004238360000E-03   5.992631922260000E-03   6.052858874350000E-03
   6.113691117380000E-03   6.175134734610000E-03   6.237195870460000E-03
   6.299880731090000E-03   6.363195585050000E-03   6.427146763870000E-03
   6.491740662720000E-03   6.556983741050000E-03   6.622882523220000E-03
   6.689443599150000E-03   6.756673625020000E-03   6.824579323890000E-03
   6.893167486370000E-03   6.962444971350000E-03   7.032418706630000E-03
   7.103095689630000E-03   7.174482988130000E-03   7.246587740900000E-03
   7.319417158490000E-03   7.392978523890000E-03   7.467279193310000E-03
   7.542326596860000E-03   7.618128239360000E-03   7.694691701040000E-03
   7.772024638300000E-03   7.850134784490001E-03   7.929029950709999E-03
   8.008718026530000E-03   8.089206980830000E-03   8.170504862559999E-03
   8.252619801590000E-03   8.335560009480001E-03   8.419333780320001E-03
   8.503949491550001E-03   8.589415604810000E-03   8.675740666789999E-03
   8.762933310070000E-03   8.851002253989999E-03   8.939956305499999E-03
   9.029804360100001E-03   9.120555402660000E-03   9.212218508350000E-03
   9.304802843580000E-03   9.398317666840000E-03   9.492772329700000E-03
   9.588176277709999E-03   9.684539051330000E-03   9.781870286930000E-03
   9.880179717710000E-03   9.979477174690001E-03   1.007977258770000E-02
   1.018107598640000E-02   1.028339750110000E-02   1.038674736420000E-02
   1.049113591070000E-02   1.059657357950000E-02   1.070307091450000E-02
   1.081063856550000E-02   1.091928728940000E-02   1.102902795110000E-02
   1.113987152480000E-02   1.125182909490000E-02   1.136491185730000E-02
   1.147913112030000E-02   1.159449830610000E-02   1.171102495130000E-02
   1.182872270880000E-02   1.194760334840000E-02   1.206767875830000E-02
   1.218896094620000E-02   1.231146204030000E-02   1.243519429080000E-02
   1.256017007120000E-02   1.268640187900000E-02   1.281390233760000E-02
   1.294268419710000E-02   1.307276033580000E-02   1.320414376140000E-02
   1.333684761240000E-02   1.347088515930000E-02   1.360626980590000E-02
   1.374301509080000E-02   1.388113468870000E-02   1.402064241170000E-02
   1.416155221050000E-02   1.430387817640000E-02   1.444763454200000E-02
   1.459283568320000E-02   1.473949612000000E-02   1.488763051880000E-02
   1.503725369300000E-02   1.518838060510000E-02   1.534102636790000E-02
   1.549520624610000E-02   1.565093565790000E-02   1.580823017630000E-02
   1.596710553090000E-02   1.612757760930000E-02   1.628966245890000E-02
   1.645337628840000E-02   1.661873546920000E-02   1.678575653740000E-02
   1.695445619520000E-02   1.712485131280000E-02   1.729695892980000E-02
   1.747079625710000E-02   1.764638067850000E-02   1.782372975280000E-02
   1.800286121490000E-02   1.818379297810000E-02   1.836654313570000E-02
   1.855112996300000E-02   1.873757191870000E-02   1.892588764730000E-02
   1.911609598030000E-02   1.930821593890000E-02   1.950226673520000E-02
   1.969826777440000E-02   1.989623865680000E-02   2.009619917970000E-02
   2.029816933920000E-02   2.050216933260000E-02   2.070821955990000E-02
   2.091634062650000E-02   2.112655334460000E-02   2.133887873560000E-02
   2.155333803230000E-02   2.176995268080000E-02   2.198874434260000E-02
   2.220973489720000E-02   2.243294644390000E-02   2.265840130380000E-02
   2.288612202280000E-02   2.311613137300000E-02   2.334845235560000E-02
   2.358310820300000E-02   2.382012238080000E-02   2.405951859070000E-02
   2.430132077250000E-02   2.454555310660000E-02   2.479224001650000E-02
   2.504140617100000E-02   2.529307648710000E-02   2.554727613190000E-02
   2.580403052550000E-02   2.606336534380000E-02   2.632530652020000E-02
   2.658988024930000E-02   2.685711298860000E-02   2.712703146150000E-02
   2.739966266020000E-02   2.767503384800000E-02   2.795317256220000E-02
   2.823410661700000E-02   2.851786410600000E-02   2.880447340510000E-02
   2.909396317560000E-02   2.938636236660000E-02   2.968170021840000E-02
   2.998000626500000E-02   3.028131033710000E-02   3.058564256550000E-02
   3.089303338370000E-02   3.120351353090000E-02   3.151711405550000E-02
   3.183386631780000E-02   3.215380199320000E-02   3.247695307570000E-02
   3.280335188040000E-02   3.313303104780000E-02   3.346602354580000E-02
   3.380236267410000E-02   3.414208206680000E-02   3.448521569620000E-02
   3.483179787580000E-02   3.518186326430000E-02   3.553544686850000E-02
   3.589258404690000E-02   3.625331051370000E-02   3.661766234170000E-02
   3.698567596650000E-02   3.735738818960000E-02   3.773283618280000E-02
   3.811205749100000E-02   3.849509003670000E-02   3.888197212350000E-02
   3.927274243990000E-02   3.966744006320000E-02   4.006610446370000E-02
   4.046877550790000E-02   4.087549346350000E-02   4.128629900240000E-02
   4.170123320570000E-02   4.212033756700000E-02   4.254365399720000E-02
   4.297122482830000E-02   4.340309281760000E-02   4.383930115240000E-02
   4.427989345380000E-02   4.472491378150000E-02   4.517440663780000E-02
   4.562841697250000E-02   4.608699018680000E-02   4.655017213860000E-02
   4.701800914640000E-02   4.749054799430000E-02   4.796783593660000E-02
   4.844992070240000E-02   4.893685050070000E-02   4.942867402480000E-02
   4.992544045750000E-02   5.042719947580000E-02   5.093400125610000E-02
   5.144589647900000E-02   5.196293633440000E-02   5.248517252680000E-02
   5.301265728010000E-02   5.354544334340000E-02   5.408358399560000E-02
   5.462713305120000E-02   5.517614486570000E-02   5.573067434070000E-02
   5.629077692950000E-02   5.685650864290000E-02   5.742792605460000E-02
   5.800508630680000E-02   5.858804711590000E-02   5.917686677850000E-02
   5.977160417720000E-02   6.037231878610000E-02   6.097907067710000E-02
   6.159192052610000E-02   6.221092961840000E-02   6.283615985550001E-02
   6.346767376100000E-02   6.410553448670001E-02   6.474980581930000E-02
   6.540055218650000E-02   6.605783866340000E-02   6.672173097910000E-02
   6.739229552360000E-02   6.806959935380000E-02   6.875371020069999E-02
   6.944469647590000E-02   7.014262727850000E-02   7.084757240240000E-02
   7.155960234260000E-02   7.227878830260000E-02   7.300520220170000E-02
   7.373891668180001E-02   7.448000511510000E-02   7.522854161089999E-02
   7.598460102360000E-02   7.674825895970000E-02   7.751959178570000E-02
   7.829867663539999E-02   7.908559141810000E-02   7.988041482579999E-02
   8.068322634150001E-02   8.149410624710000E-02   8.231313563129999E-02
   8.314039639760000E-02   8.397597127290000E-02   8.481994381520000E-02
   8.567239842259999E-02   8.653342034130000E-02   8.740309567410000E-02
   8.828151138930000E-02   8.916875532920000E-02   9.006491621890000E-02
   9.097008367530000E-02   9.188434821590000E-02   9.280780126790000E-02
   9.374053517740000E-02   9.468264321850001E-02   9.563421960280000E-02
   9.659535948880001E-02   9.756615899120000E-02   9.854671519079999E-02
   9.953712614410000E-02   1.005374908930000E-01   1.015479094750000E-01
   1.025684829320000E-01   1.035993133230000E-01   1.046405037320000E-01
   1.056921582780000E-01   1.067543821280000E-01   1.078272815050000E-01
   1.089109637010000E-01   1.100055370830000E-01   1.111111111110000E-01
   1.122277963430000E-01   1.133557044470000E-01   1.144949482170000E-01
   1.156456415770000E-01   1.168078995970000E-01   1.179818385050000E-01
   1.191675756950000E-01   1.203652297420000E-01   1.215749204120000E-01
   1.227967686750000E-01   1.240308967180000E-01   1.252774279530000E-01
   1.265364870360000E-01   1.278081998730000E-01   1.290926936360000E-01
   1.303900967770000E-01   1.317005390360000E-01   1.330241514580000E-01
   1.343610664060000E-01   1.357114175730000E-01   1.370753399950000E-01
   1.384529700650000E-01   1.398444455480000E-01   1.412499055910000E-01
   1.426694907430000E-01   1.441033429630000E-01   1.455516056370000E-01
   1.470144235930000E-01   1.484919431140000E-01   1.499843119530000E-01
   1.514916793480000E-01   1.530141960370000E-01   1.545520142740000E-01
   1.561052878400000E-01   1.576741720660000E-01   1.592588238400000E-01
   1.608594016290000E-01   1.624760654930000E-01   1.641089770980000E-01
   1.657582997380000E-01   1.674241983460000E-01   1.691068395130000E-01
   1.708063915050000E-01   1.725230242790000E-01   1.742569094990000E-01
   1.760082205550000E-01   1.777771325800000E-01   1.795638224660000E-01
   1.813684688840000E-01   1.831912523000000E-01   1.850323549940000E-01
   1.868919610780000E-01   1.887702565130000E-01   1.906674291320000E-01
   1.925836686520000E-01   1.945191667000000E-01   1.964741168260000E-01
   1.984487145280000E-01   2.004431572660000E-01   2.024576444880000E-01
   2.044923776420000E-01   2.065475602050000E-01   2.086233976960000E-01
   2.107200977010000E-01   2.128378698900000E-01   2.149769260450000E-01
   2.171374800710000E-01   2.193197480260000E-01   2.215239481380000E-01
   2.237503008300000E-01   2.259990287390000E-01   2.282703567380000E-01
   2.305645119640000E-01   2.328817238330000E-01   2.352222240680000E-01
   2.375862467220000E-01   2.399740281980000E-01   2.423858072780000E-01
   2.448218251400000E-01   2.472823253880000E-01   2.497675540750000E-01
   2.522777597260000E-01   2.548131933630000E-01   2.573741085310000E-01
   2.599607613250000E-01   2.625734104120000E-01   2.652123170580000E-01
   2.678777451570000E-01   2.705699612540000E-01   2.732892345730000E-01
   2.760358370430000E-01   2.788100433260000E-01   2.816121308460000E-01
   2.844423798140000E-01   2.873010732570000E-01   2.901884970470000E-01
   2.931049399280000E-01   2.960506935480000E-01   2.990260524830000E-01
   3.020313142730000E-01   3.050667794460000E-01   3.081327515520000E-01
   3.112295371890000E-01   3.143574460390000E-01   3.175167908960000E-01
   3.207078876960000E-01   3.239310555530000E-01   3.271866167850000E-01
   3.304748969510000E-01   3.337962248830000E-01   3.371509327150000E-01
   3.405393559210000E-01   3.439618333470000E-01   3.474187072430000E-01
   3.509103232990000E-01   3.544370306800000E-01   3.579991820590000E-01
   3.615971336540000E-01   3.652312452650000E-01   3.689018803040000E-01
   3.726094058390000E-01   3.763541926250000E-01   3.801366151430000E-01
   3.839570516400000E-01   3.878158841620000E-01   3.917134985960000E-01
   3.956502847060000E-01   3.996266361740000E-01   4.036429506390000E-01
   4.076996297350000E-01   4.117970791340000E-01   4.159357085850000E-01
   4.201159319520000E-01   4.243381672630000E-01   4.286028367440000E-01
   4.329103668660000E-01   4.372611883860000E-01   4.416557363880000E-01
   4.460944503330000E-01   4.505777740940000E-01   4.551061560080000E-01
   4.596800489170000E-01   4.642999102140000E-01   4.689662018890000E-01
   4.736793905740000E-01   4.784399475940000E-01   4.832483490070000E-01
   4.881050756580000E-01   4.930106132230000E-01   4.979654522600000E-01
   5.029700882570000E-01   5.080250216820000E-01   5.131307580330000E-01
   5.182878078880000E-01   5.234966869550000E-01   5.287579161260000E-01
   5.340720215310000E-01   5.394395345820000E-01   5.448609920360000E-01
   5.503369360440000E-01   5.558679142039999E-01   5.614544796180000E-01
   5.670971909490000E-01   5.727966124710000E-01   5.785533141310000E-01
   5.843678716050000E-01   5.902408663530000E-01   5.961728856800000E-01
   6.021645227919999E-01   6.082163768590000E-01   6.143290530690000E-01
   6.205031626970000E-01   6.267393231590001E-01   6.330381580750000E-01
   6.394002973339999E-01   6.458263771560000E-01   6.523170401540000E-01
   6.588729353990000E-01   6.654947184870000E-01   6.721830516010000E-01
   6.789386035810000E-01   6.857620499870000E-01   6.926540731690000E-01
   6.996153623360000E-01   7.066466136220000E-01   7.137485301590000E-01
   7.209218221430000E-01   7.281672069100000E-01   7.354854090050000E-01
   7.428771602530000E-01   7.503431998370000E-01   7.578842743660000E-01
   7.655011379530000E-01   7.731945522930000E-01   7.809652867320001E-01
   7.888141183510000E-01   7.967418320390000E-01   8.047492205730000E-01
   8.128370847010000E-01   8.210062332150000E-01   8.292574830350000E-01
   8.375916592960000E-01   8.460095954200000E-01   8.545121332090000E-01
   8.631001229230000E-01   8.717744233690000E-01   8.805359019830000E-01
   8.893854349220000E-01   8.983239071450000E-01   9.073522125080000E-01
   9.164712538470000E-01   9.256819430760000E-01   9.349852012710000E-01
   9.443819587650000E-01   9.538731552420000E-01   9.634597398290000E-01
   9.731426711930000E-01   9.829229176360000E-01   9.928014571890000E-01
   1.002779277710000E+00   1.012857377000000E+00   1.023036762880000E+00
   1.033318453280000E+00   1.043703476380000E+00   1.054192870710000E+00
   1.064787685200000E+00   1.075488979340000E+00   1.086297823280000E+00
   1.097215297910000E+00   1.108242494980000E+00   1.119380517220000E+00
   1.130630478450000E+00   1.141993503670000E+00   1.153470729190000E+00
   1.165063302750000E+00   1.176772383600000E+00   1.188599142680000E+00
   1.200544762660000E+00   1.212610438120000E+00   1.224797375630000E+00
   1.237106793900000E+00   1.249539923880000E+00   1.262098008890000E+00
   1.274782304750000E+00   1.287594079910000E+00   1.300534615550000E+00
   1.313605205740000E+00   1.326807157540000E+00   1.340141791160000E+00
   1.353610440080000E+00   1.367214451170000E+00   1.380955184840000E+00
   1.394834015190000E+00   1.408852330090000E+00   1.423011531410000E+00
   1.437313035060000E+00   1.451758271210000E+00   1.466348684410000E+00
   1.481085733690000E+00   1.495970892780000E+00   1.511005650200000E+00
   1.526191509450000E+00   1.541529989130000E+00   1.557022623080000E+00
   1.572670960600000E+00   1.588476566520000E+00   1.604441021420000E+00
   1.620565921760000E+00   1.636852880050000E+00   1.653303524990000E+00
   1.669919501650000E+00   1.686702471660000E+00   1.703654113320000E+00
   1.720776121820000E+00   1.738070209350000E+00   1.755538105360000E+00
   1.773181556640000E+00   1.791002327560000E+00   1.809002200200000E+00
   1.827182974570000E+00   1.845546468750000E+00   1.864094519130000E+00
   1.882828980500000E+00   1.901751726350000E+00   1.920864648950000E+00
   1.940169659620000E+00   1.959668688870000E+00   1.979363686620000E+00
   1.999256622390000E+00   2.019349485490000E+00   2.039644285220000E+00
   2.060143051080000E+00   2.080847832960000E+00   2.101760701360000E+00
   2.122883747580000E+00   2.144219083940000E+00   2.165768844000000E+00
   2.187535182750000E+00   2.209520276840000E+00   2.231726324800000E+00
   2.254155547250000E+00   2.276810187130000E+00   2.299692509930000E+00
   2.322804803900000E+00   2.346149380280000E+00   2.369728573560000E+00
   2.393544741670000E+00   2.417600266240000E+00   2.441897552860000E+00
   2.466439031270000E+00   2.491227155640000E+00   2.516264404800000E+00
   2.541553282490000E+00   2.567096317640000E+00   2.592896064550000E+00
   2.618955103230000E+00   2.645276039600000E+00   2.671861505780000E+00
   2.698714160340000E+00   2.725836688570000E+00   2.753231802730000E+00
   2.780902242370000E+00   2.808850774550000E+00   2.837080194150000E+00
   2.865593324130000E+00   2.894393015840000E+00   2.923482149250000E+00
   2.952863633320000E+00   2.982540406210000E+00   3.012515435630000E+00
   3.042791719100000E+00   3.073372284280000E+00   3.104260189250000E+00
   3.135458522820000E+00   3.166970404860000E+00   3.198798986580000E+00
   3.230947450870000E+00   3.263419012590000E+00   3.296216918930000E+00
   3.329344449710000E+00   3.362804917710000E+00   3.396601669010000E+00
   3.430738083300000E+00   3.465217574260000E+00   3.500043589860000E+00
   3.535219612740000E+00   3.570749160530000E+00   3.606635786210000E+00
   3.642883078470000E+00   3.679494662080000E+00   3.716474198220000E+00
   3.753825384870000E+00   3.791551957190000E+00   3.829657687870000E+00
   3.868146387510000E+00   3.907021905010000E+00   3.946288127960000E+00
   3.985948983010000E+00   4.026008436280000E+00   4.066470493740000E+00
   4.107339201650000E+00   4.148618646890000E+00   4.190312957460000E+00
   4.232426302820000E+00   4.274962894340000E+00   4.317926985700000E+00
   4.361322873370000E+00   4.405154896950000E+00   4.449427439700000E+00