<UPF version="2.0.1">
  <PP_INFO>
    Generated by new atomic code, or converted to UPF format
    Author: 
    Generation date: 
    Pseudopotential type: NC
    Element: Ge
    Functional:  SLA  PW  SCAN SCAN
    Suggested minimum cutoff for wavefunctions:   0. Ry
    Suggested minimum cutoff for charge density:   0. Ry
    The Pseudo was generated with a Non-Relativistic Calculation
    L component and cutoff radius for Local Potential:  0   0.0000
    Valence configuration: 
    nl pn  l   occ       Rcut    Rcut US       E pseu
    0S  1  0  2.00      0.000      0.000     0.000000
    0P  2  1  2.00      0.000      0.000     0.000000
    0D  3  2  0.00      0.000      0.000     0.000000
    Generation configuration: not available.
  </PP_INFO>
    <!-- END OF HUMAN READABLE SECTION -->
  <PP_HEADER generated="Generated by new atomic code, or converted to UPF format" author="" date="" comment="" element="Ge" pseudo_type="NC" relativistic="no" is_ultrasoft="false" is_paw="false" is_coulomb="false" has_so="false" has_wfc="false" has_gipaw="false" paw_as_gipaw="false" core_correction="false" functional=" SLA  PW  SCAN SCAN" z_valence="4.00000000000000" total_psenergy="0.000000000000000E+000" wfc_cutoff="0.000000000000000E+000" rho_cutoff="0.000000000000000E+000" l_max="1" l_max_rho="0" l_local="0" mesh_size="1557" number_of_wfc="3" number_of_proj="2"/>
  <PP_MESH mesh="1557" dx="9.999999999996895E-003" xmin="-7.99999999999556" rmax="59.9951722929000" zmesh="32.0000000000000">
    <PP_R>
   1.048320712200000E-05   1.058856510510000E-05   1.069498195360000E-05
   1.080246830920000E-05   1.091103492060000E-05   1.102069264460000E-05
   1.113145244710000E-05   1.124332540410000E-05   1.135632270300000E-05
   1.147045564360000E-05   1.158573563930000E-05   1.170217421830000E-05
   1.181978302450000E-05   1.193857381880000E-05   1.205855848040000E-05
   1.217974900790000E-05   1.230215752050000E-05   1.242579625900000E-05
   1.255067758760000E-05   1.267681399440000E-05   1.280421809310000E-05
   1.293290262430000E-05   1.306288045660000E-05   1.319416458780000E-05
   1.332676814640000E-05   1.346070439300000E-05   1.359598672120000E-05
   1.373262865940000E-05   1.387064387200000E-05   1.401004616040000E-05
   1.415084946520000E-05   1.429306786670000E-05   1.443671558690000E-05
   1.458180699070000E-05   1.472835658740000E-05   1.487637903190000E-05
   1.502588912680000E-05   1.517690182310000E-05   1.532943222230000E-05
   1.548349557740000E-05   1.563910729500000E-05   1.579628293640000E-05
   1.595503821920000E-05   1.611538901910000E-05   1.627735137140000E-05
   1.644094147240000E-05   1.660617568120000E-05   1.677307052140000E-05
   1.694164268270000E-05   1.711190902230000E-05   1.728388656710000E-05
   1.745759251500000E-05   1.763304423660000E-05   1.781025927740000E-05
   1.798925535900000E-05   1.817005038110000E-05   1.835266242330000E-05
   1.853710974710000E-05   1.872341079730000E-05   1.891158420420000E-05
   1.910164878530000E-05   1.929362354720000E-05   1.948752768750000E-05
   1.968338059680000E-05   1.988120186060000E-05   2.008101126110000E-05
   2.028282877950000E-05   2.048667459770000E-05   2.069256910040000E-05
   2.090053287720000E-05   2.111058672480000E-05   2.132275164860000E-05
   2.153704886540000E-05   2.175349980500000E-05   2.197212611270000E-05
   2.219294965130000E-05   2.241599250340000E-05   2.264127697340000E-05
   2.286882559000000E-05   2.309866110820000E-05   2.333080651180000E-05
   2.356528501540000E-05   2.380212006720000E-05   2.404133535080000E-05
   2.428295478800000E-05   2.452700254100000E-05   2.477350301460000E-05
   2.502248085910000E-05   2.527396097260000E-05   2.552796850330000E-05
   2.578452885210000E-05   2.604366767520000E-05   2.630541088680000E-05
   2.656978466150000E-05   2.683681543670000E-05   2.710652991580000E-05
   2.737895507060000E-05   2.765411814360000E-05   2.793204665150000E-05
   2.821276838740000E-05   2.849631142360000E-05   2.878270411470000E-05
   2.907197510020000E-05   2.936415330740000E-05   2.965926795440000E-05
   2.995734855290000E-05   3.025842491130000E-05   3.056252713740000E-05
   3.086968564160000E-05   3.117993114010000E-05   3.149329465780000E-05
   3.180980753110000E-05   3.212950141170000E-05   3.245240826920000E-05
   3.277856039460000E-05   3.310799040340000E-05   3.344073123870000E-05
   3.377681617510000E-05   3.411627882120000E-05   3.445915312370000E-05
   3.480547337020000E-05   3.515527419300000E-05   3.550859057250000E-05
   3.586545784070000E-05   3.622591168450000E-05   3.658998814970000E-05
   3.695772364420000E-05   3.732915494190000E-05   3.770431918620000E-05
   3.808325389380000E-05   3.846599695850000E-05   3.885258665500000E-05
   3.924306164260000E-05   3.963746096900000E-05   4.003582407450000E-05
   4.043819079580000E-05   4.084460136990000E-05   4.125509643810000E-05
   4.166971705040000E-05   4.208850466910000E-05   4.251150117340000E-05
   4.293874886320000E-05   4.337029046360000E-05   4.380616912930000E-05
   4.424642844830000E-05   4.469111244710000E-05   4.514026559440000E-05
   4.559393280580000E-05   4.605215944860000E-05   4.651499134560000E-05
   4.698247478050000E-05   4.745465650210000E-05   4.793158372890000E-05
   4.841330415400000E-05   4.889986594980000E-05   4.939131777300000E-05
   4.988770876910000E-05   5.038908857770000E-05   5.089550733710000E-05
   5.140701568970000E-05   5.192366478670000E-05   5.244550629340000E-05
   5.297259239450000E-05   5.350497579890000E-05   5.404270974550000E-05
   5.458584800820000E-05   5.513444490110000E-05   5.568855528440000E-05
   5.624823456970000E-05   5.681353872530000E-05   5.738452428220000E-05
   5.796124833920000E-05   5.854376856950000E-05   5.913214322530000E-05
   5.972643114480000E-05   6.032669175710000E-05   6.093298508890000E-05
   6.154537177000001E-05   6.216391303950000E-05   6.278867075219999E-05
   6.341970738420000E-05   6.405708603990000E-05   6.470087045750000E-05
   6.535112501610000E-05   6.600791474160001E-05   6.667130531369999E-05
   6.734136307180001E-05   6.801815502229999E-05   6.870174884510000E-05
   6.939221289990000E-05   7.008961623389999E-05   7.079402858790001E-05
   7.150552040380000E-05   7.222416283130000E-05   7.295002773530000E-05
   7.368318770280000E-05   7.442371605050000E-05   7.517168683190000E-05
   7.592717484450000E-05   7.669025563789999E-05   7.746100552080000E-05
   7.823950156880000E-05   7.902582163220000E-05   7.982004434350000E-05
   8.062224912580000E-05   8.143251620030000E-05   8.225092659420000E-05
   8.307756214930000E-05   8.391250552980001E-05   8.475584023080000E-05
   8.560765058650001E-05   8.646802177860000E-05   8.733703984490000E-05
   8.821479168799999E-05   8.910136508370001E-05   8.999684869030000E-05
   9.090133205660001E-05   9.181490563200000E-05   9.273766077440000E-05
   9.366968976019999E-05   9.461108579300000E-05   9.556194301320000E-05
   9.652235650740000E-05   9.749242231770000E-05   9.847223745140000E-05
   9.946189989090000E-05   1.004615086030000E-04   1.014711635500000E-04
   1.024909656980000E-04   1.035210170280000E-04   1.045614205460000E-04
   1.056122802930000E-04   1.066737013560000E-04   1.077457898780000E-04
   1.088286530690000E-04   1.099223992160000E-04   1.110271376940000E-04
   1.121429789790000E-04   1.132700346550000E-04   1.144084174290000E-04
   1.155582411400000E-04   1.167196207720000E-04   1.178926724620000E-04
   1.190775135190000E-04   1.202742624250000E-04   1.214830388590000E-04
   1.227039636970000E-04   1.239371590340000E-04   1.251827481900000E-04
   1.264408557260000E-04   1.277116074520000E-04   1.289951304450000E-04
   1.302915530600000E-04   1.316010049370000E-04   1.329236170250000E-04
   1.342595215860000E-04   1.356088522110000E-04   1.369717438330000E-04
   1.383483327450000E-04   1.397387566050000E-04   1.411431544570000E-04
   1.425616667420000E-04   1.439944353120000E-04   1.454416034460000E-04
   1.469033158620000E-04   1.483797187320000E-04   1.498709596970000E-04
   1.513771878830000E-04   1.528985539140000E-04   1.544352099270000E-04
   1.559873095910000E-04   1.575550081150000E-04   1.591384622720000E-04
   1.607378304070000E-04   1.623532724600000E-04   1.639849499740000E-04
   1.656330261210000E-04   1.672976657080000E-04   1.689790352010000E-04
   1.706773027390000E-04   1.723926381490000E-04   1.741252129660000E-04
   1.758752004500000E-04   1.776427756010000E-04   1.794281151770000E-04
   1.812313977140000E-04   1.830528035420000E-04   1.848925148030000E-04
   1.867507154690000E-04   1.886275913620000E-04   1.905233301720000E-04
   1.924381214740000E-04   1.943721567480000E-04   1.963256294000000E-04
   1.982987347780000E-04   2.002916701960000E-04   2.023046349470000E-04
   2.043378303300000E-04   2.063914596660000E-04   2.084657283200000E-04
   2.105608437210000E-04   2.126770153820000E-04   2.148144549220000E-04
   2.169733760860000E-04   2.191539947680000E-04   2.213565290330000E-04
   2.235811991350000E-04   2.258282275430000E-04   2.280978389620000E-04
   2.303902603550000E-04   2.327057209660000E-04   2.350444523440000E-04
   2.374066883620000E-04   2.397926652470000E-04   2.422026215980000E-04
   2.446367984130000E-04   2.470954391120000E-04   2.495787895610000E-04
   2.520870980970000E-04   2.546206155520000E-04   2.571795952820000E-04
   2.597642931850000E-04   2.623749677340000E-04   2.650118799990000E-04
   2.676752936720000E-04   2.703654750980000E-04   2.730826932960000E-04
   2.758272199910000E-04   2.785993296390000E-04   2.813992994510000E-04
   2.842274094280000E-04   2.870839423830000E-04   2.899691839710000E-04
   2.928834227190000E-04   2.958269500530000E-04   2.988000603290000E-04
   3.018030508610000E-04   3.048362219480000E-04   3.078998769120000E-04
   3.109943221200000E-04   3.141198670200000E-04   3.172768241680000E-04
   3.204655092630000E-04   3.236862411750000E-04   3.269393419820000E-04
   3.302251369950000E-04   3.335439547980000E-04   3.368961272730000E-04
   3.402819896420000E-04   3.437018804940000E-04   3.471561418200000E-04
   3.506451190500000E-04   3.541691610830000E-04   3.577286203280000E-04
   3.613238527330000E-04   3.649552178250000E-04   3.686230787420000E-04
   3.723278022750000E-04   3.760697588980000E-04   3.798493228100000E-04
   3.836668719710000E-04   3.875227881390000E-04   3.914174569090000E-04
   3.953512677500000E-04   3.993246140480000E-04   4.033378931400000E-04
   4.073915063570000E-04   4.114858590650000E-04   4.156213607010000E-04
   4.197984248200000E-04   4.240174691310000E-04   4.282789155430000E-04
   4.325831902020000E-04   4.369307235420000E-04   4.413219503180000E-04
   4.457573096560000E-04   4.502372450970000E-04   4.547622046380000E-04
   4.593326407780000E-04   4.639490105650000E-04   4.686117756400000E-04
   4.733214022830000E-04   4.780783614600000E-04   4.828831288720000E-04
   4.877361849990000E-04   4.926380151520000E-04   4.975891095160000E-04
   5.025899632060000E-04   5.076410763110000E-04   5.127429539470000E-04
   5.178961063050000E-04   5.231010487060001E-04   5.283583016470000E-04
   5.336683908590000E-04   5.390318473550000E-04   5.444492074840001E-04
   5.499210129880000E-04   5.554478110520000E-04   5.610301543590000E-04
   5.666686011500000E-04   5.723637152730000E-04   5.781160662440000E-04
   5.839262293040000E-04   5.897947854730000E-04   5.957223216130000E-04
   6.017094304810000E-04   6.077567107930000E-04   6.138647672830000E-04
   6.200342107620000E-04   6.262656581780000E-04   6.325597326809999E-04
   6.389170636860000E-04   6.453382869289999E-04   6.518240445380000E-04
   6.583749850950000E-04   6.649917636990000E-04   6.716750420340000E-04
   6.784254884330000E-04   6.852437779460000E-04   6.921305924070000E-04
   6.990866205050001E-04   7.061125578479999E-04   7.132091070340000E-04
   7.203769777260000E-04   7.276168867160000E-04   7.349295580000000E-04
   7.423157228530000E-04   7.497761198969999E-04   7.573114951780000E-04
   7.649226022390000E-04   7.726102021980000E-04   7.803750638210000E-04
   7.882179636010000E-04   7.961396858340000E-04   8.041410226990000E-04
   8.122227743360000E-04   8.203857489280000E-04   8.286307627780000E-04
   8.369586403950000E-04   8.453702145730000E-04   8.538663264780000E-04
   8.624478257270000E-04   8.711155704760000E-04   8.798704275090000E-04
   8.887132723180000E-04   8.976449891950000E-04   9.066664713190000E-04
   9.157786208450000E-04   9.249823489970000E-04   9.342785761540000E-04
   9.436682319470000E-04   9.531522553510000E-04   9.627315947730000E-04
   9.724072081580000E-04   9.821800630740000E-04   9.920511368150000E-04
   1.002021416500000E-03   1.012091899150000E-03   1.022263591840000E-03
   1.032537511750000E-03   1.042914686260000E-03   1.053396153110000E-03
   1.063982960460000E-03   1.074676166980000E-03   1.085476842020000E-03
   1.096386065650000E-03   1.107404928800000E-03   1.118534533360000E-03
   1.129775992310000E-03   1.141130429800000E-03   1.152598981290000E-03
   1.164182793630000E-03   1.175883025220000E-03   1.187700846100000E-03
   1.199637438050000E-03   1.211693994740000E-03   1.223871721840000E-03
   1.236171837140000E-03   1.248595570650000E-03   1.261144164750000E-03
   1.273818874320000E-03   1.286620966850000E-03   1.299551722540000E-03
   1.312612434480000E-03   1.325804408770000E-03   1.339128964600000E-03
   1.352587434440000E-03   1.366181164150000E-03   1.379911513120000E-03
   1.393779854380000E-03   1.407787574800000E-03   1.421936075140000E-03
   1.436226770280000E-03   1.450661089290000E-03   1.465240475620000E-03
   1.479966387220000E-03   1.494840296690000E-03   1.509863691440000E-03
   1.525038073810000E-03   1.540364961260000E-03   1.555845886500000E-03
   1.571482397610000E-03   1.587276058280000E-03   1.603228447870000E-03
   1.619341161650000E-03   1.635615810890000E-03   1.652054023070000E-03
   1.668657442040000E-03   1.685427728140000E-03   1.702366558410000E-03
   1.719475626760000E-03   1.736756644110000E-03   1.754211338570000E-03
   1.771841455620000E-03   1.789648758300000E-03   1.807635027340000E-03
   1.825802061390000E-03   1.844151677170000E-03   1.862685709650000E-03
   1.881406012260000E-03   1.900314457040000E-03   1.919412934840000E-03
   1.938703355540000E-03   1.958187648190000E-03   1.977867761240000E-03
   1.997745662710000E-03   2.017823340410000E-03   2.038102802130000E-03
   2.058586075830000E-03   2.079275209840000E-03   2.100172273120000E-03
   2.121279355370000E-03   2.142598567320000E-03   2.164132040920000E-03
   2.185881929520000E-03   2.207850408140000E-03   2.230039673640000E-03
   2.252451944960000E-03   2.275089463360000E-03   2.297954492600000E-03
   2.321049319200000E-03   2.344376252670000E-03   2.367937625710000E-03
   2.391735794500000E-03   2.415773138850000E-03   2.440052062540000E-03
   2.464574993460000E-03   2.489344383930000E-03   2.514362710920000E-03
   2.539632476280000E-03   2.565156207000000E-03   2.590936455470000E-03
   2.616975799760000E-03   2.643276843800000E-03   2.669842217730000E-03
   2.696674578110000E-03   2.723776608190000E-03   2.751151018200000E-03
   2.778800545610000E-03   2.806727955380000E-03   2.834936040290000E-03
   2.863427621170000E-03   2.892205547200000E-03   2.921272696190000E-03
   2.950631974880000E-03   2.980286319240000E-03   3.010238694700000E-03
   3.040492096550000E-03   3.071049550140000E-03   3.101914111240000E-03
   3.133088866340000E-03   3.164576932930000E-03   3.196381459860000E-03
   3.228505627600000E-03   3.260952648590000E-03   3.293725767560000E-03
   3.326828261850000E-03   3.360263441740000E-03   3.394034650780000E-03
   3.428145266110000E-03   3.462598698820000E-03   3.497398394290000E-03
   3.532547832510000E-03   3.568050528460000E-03   3.603910032440000E-03
   3.640129930420000E-03   3.676713844430000E-03   3.713665432890000E-03
   3.750988390980000E-03   3.788686451040000E-03   3.826763382910000E-03
   3.865222994300000E-03   3.904069131210000E-03   3.943305678280000E-03
   3.982936559210000E-03   4.022965737120000E-03   4.063397214950000E-03
   4.104235035890000E-03   4.145483283750000E-03   4.187146083400000E-03
   4.229227601140000E-03   4.271732045170000E-03   4.314663665970000E-03
   4.358026756720000E-03   4.401825653780000E-03   4.446064737080000E-03
   4.490748430550000E-03   4.535881202610000E-03   4.581467566570000E-03
   4.627512081110000E-03   4.674019350710000E-03   4.720994026140000E-03
   4.768440804900000E-03   4.816364431720000E-03   4.864769699000000E-03
   4.913661447300000E-03   4.963044565840000E-03   5.012923992970000E-03
   5.063304716680000E-03   5.114191775080000E-03   5.165590256920000E-03
   5.217505302100000E-03   5.269942102140000E-03   5.322905900790000E-03
   5.376401994470000E-03   5.430435732830000E-03   5.485012519280000E-03
   5.540137811560000E-03   5.595817122230000E-03   5.652056019290000E-03
   5.708860126650000E-03   5.766235124780000E-03   5.824186751230000E-03
   5.882720801210000E-03   5.941843128170000E-03   6.001559644400000E-03
   6.061876321590000E-03   6.122799191470000E-03   6.184334346360000E-03
   6.246487939850000E-03   6.309266187330000E-03   6.372675366690000E-03
   6.436721818900000E-03   6.501411948660000E-03   6.566752225020000E-03
   6.632749182090000E-03   6.699409419590000E-03   6.766739603630000E-03
   6.834746467260000E-03   6.903436811230000E-03   6.972817504640000E-03
   7.042895485610000E-03   7.113677761990000E-03   7.185171412090000E-03
   7.257383585300000E-03   7.330321502930000E-03   7.403992458820000E-03
   7.478403820120000E-03   7.553563028030000E-03   7.629477598540000E-03
   7.706155123180000E-03   7.783603269740000E-03   7.861829783120000E-03
   7.940842486029999E-03   8.020649279800000E-03   8.101258145180000E-03
   8.182677143139999E-03   8.264914415620000E-03   8.347978186430001E-03
   8.431876762020001E-03   8.516618532310000E-03   8.602211971550000E-03
   8.688665639159999E-03   8.775988180570000E-03   8.864188328120000E-03
   8.953274901880000E-03   9.043256810600000E-03   9.134143052530000E-03
   9.225942716380000E-03   9.318664982180000E-03   9.412319122260000E-03
   9.506914502080001E-03   9.602460581290001E-03   9.698966914550000E-03
   9.796443152579999E-03   9.894899043100000E-03   9.994344431760000E-03
   1.009478926320000E-02   1.019624358200000E-02   1.029871753360000E-02
   1.040222136560000E-02   1.050676542830000E-02   1.061236017640000E-02
   1.071901616930000E-02   1.082674407280000E-02   1.093555465970000E-02
   1.104545881120000E-02   1.115646751780000E-02   1.126859188040000E-02
   1.138184311160000E-02   1.149623253660000E-02   1.161177159440000E-02
   1.172847183910000E-02   1.184634494070000E-02   1.196540268670000E-02
   1.208565698300000E-02   1.220711985500000E-02   1.232980344910000E-02
   1.245372003390000E-02   1.257888200110000E-02   1.270530186690000E-02
   1.283299227350000E-02   1.296196599000000E-02   1.309223591400000E-02
   1.322381507240000E-02   1.335671662340000E-02   1.349095385720000E-02
   1.362654019750000E-02   1.376348920330000E-02   1.390181456950000E-02
   1.404153012870000E-02   1.418264985260000E-02   1.432518785330000E-02
   1.446915838470000E-02   1.461457584410000E-02   1.476145477320000E-02
   1.490980986000000E-02   1.505965594030000E-02   1.521100799870000E-02
   1.536388117070000E-02   1.551829074350000E-02   1.567425215830000E-02
   1.583178101140000E-02   1.599089305580000E-02   1.615160420290000E-02
   1.631393052380000E-02   1.647788825130000E-02   1.664349378150000E-02
   1.681076367480000E-02   1.697971465860000E-02   1.715036362790000E-02
   1.732272764800000E-02   1.749682395520000E-02   1.767266995940000E-02
   1.785028324530000E-02   1.802968157440000E-02   1.821088288670000E-02
   1.839390530240000E-02   1.857876712410000E-02   1.876548683790000E-02
   1.895408311600000E-02   1.914457481830000E-02   1.933698099390000E-02
   1.953132088380000E-02   1.972761392210000E-02   1.992587973820000E-02
   2.012613815880000E-02   2.032840921010000E-02   2.053271311920000E-02
   2.073907031680000E-02   2.094750143860000E-02   2.115802732810000E-02
   2.137066903790000E-02   2.158544783240000E-02   2.180238518970000E-02
   2.202150280370000E-02   2.224282258630000E-02   2.246636666970000E-02
   2.269215740860000E-02   2.292021738200000E-02   2.315056939630000E-02
   2.338323648680000E-02   2.361824192050000E-02   2.385560919800000E-02
   2.409536205640000E-02   2.433752447100000E-02   2.458212065830000E-02
   2.482917507820000E-02   2.507871243630000E-02   2.533075768660000E-02
   2.558533603370000E-02   2.584247293570000E-02   2.610219410660000E-02
   2.636452551860000E-02   2.662949340520000E-02   2.689712426330000E-02
   2.716744485620000E-02   2.744048221630000E-02   2.771626364740000E-02
   2.799481672800000E-02   2.827616931360000E-02   2.856034953970000E-02
   2.884738582460000E-02   2.913730687210000E-02   2.943014167450000E-02
   2.972591951560000E-02   3.002466997350000E-02   3.032642292340000E-02
   3.063120854080000E-02   3.093905730470000E-02   3.125000000000000E-02
   3.156406772140000E-02   3.188129187580000E-02   3.220170418600000E-02
   3.252533669350000E-02   3.285222176180000E-02   3.318239207950000E-02
   3.351588066420000E-02   3.385272086480000E-02   3.419294636580000E-02
   3.453659118990000E-02   3.488368970180000E-02   3.523427661190000E-02
   3.558838697890000E-02   3.594605621430000E-02   3.630732008530000E-02
   3.667221471850000E-02   3.704077660380000E-02   3.741304259760000E-02
   3.778904992680000E-02   3.816883619250000E-02   3.855243937360000E-02
   3.893989783090000E-02   3.933125031030000E-02   3.972653594750000E-02
   4.012579427150000E-02   4.052906520830000E-02   4.093638908540000E-02
   4.134780663550000E-02   4.176335900080000E-02   4.218308773680000E-02
   4.260703481660000E-02   4.303524263550000E-02   4.346775401450000E-02
   4.390461220510000E-02   4.434586089350000E-02   4.479154420500000E-02
   4.524170670820000E-02   4.569639341980000E-02   4.615564980880000E-02
   4.661952180130000E-02   4.708805578480000E-02   4.756129861310000E-02
   4.803929761090000E-02   4.852210057850000E-02   4.900975579660000E-02
   4.950231203110000E-02   4.999981853800000E-02   5.050232506850000E-02
   5.100988187360000E-02   5.152253970940000E-02   5.204034984210000E-02
   5.256336405310000E-02   5.309163464430000E-02   5.362521444330000E-02
   5.416415680840000E-02   5.470851563430000E-02   5.525834535730000E-02
   5.581370096090000E-02   5.637463798120000E-02   5.694121251220000E-02
   5.751348121190000E-02   5.809150130770000E-02   5.867533060200000E-02
   5.926502747830000E-02   5.986065090670000E-02   6.046226045010000E-02
   6.106991626990000E-02   6.168367913220000E-02   6.230361041380000E-02
   6.292977210850000E-02   6.356222683270001E-02   6.420103783260001E-02
   6.484626898980000E-02   6.549798482789999E-02   6.615625051910000E-02
   6.682113189050000E-02   6.749269543080000E-02   6.817100829680001E-02
   6.885613832050000E-02   6.954815401540000E-02   7.024712458360000E-02
   7.095311992290000E-02   7.166621063330000E-02   7.238646802440001E-02
   7.311396412270001E-02   7.384877167829999E-02   7.459096417260000E-02
   7.534061582550000E-02   7.609780160280000E-02   7.686259722369999E-02
   7.763507916829999E-02   7.841532468550000E-02   7.920341180060000E-02
   7.999941932280000E-02   8.080342685359999E-02   8.161551479449999E-02
   8.243576435480000E-02   8.326425756030000E-02   8.410107726090001E-02
   8.494630713930000E-02   8.580003171929999E-02   8.666233637390000E-02
   8.753330733430000E-02   8.841303169850000E-02   8.930159743950000E-02
   9.019909341460000E-02   9.110560937430000E-02   9.202123597080000E-02
   9.294606476760001E-02   9.388018824829999E-02   9.482369982610001E-02
   9.577669385290000E-02   9.673926562890001E-02   9.771151141209999E-02
   9.869352842780001E-02   9.968541487860000E-02   1.006872699540000E-01
   1.016991938400000E-01   1.027212877310000E-01   1.037536538360000E-01
   1.047963953920000E-01   1.058496166760000E-01   1.069134230090000E-01
   1.079879207740000E-01   1.090732174210000E-01   1.101694214800000E-01
   1.112766425740000E-01   1.123949914240000E-01   1.135245798670000E-01
   1.146655208630000E-01   1.158179285070000E-01   1.169819180390000E-01
   1.181576058620000E-01   1.193451095430000E-01   1.205445478340000E-01
   1.217560406810000E-01   1.229797092330000E-01   1.242156758590000E-01
   1.254640641560000E-01   1.267249989640000E-01   1.279986063770000E-01
   1.292850137580000E-01   1.305843497480000E-01   1.318967442810000E-01
   1.332223285990000E-01   1.345612352610000E-01   1.359135981580000E-01
   1.372795525290000E-01   1.386592349690000E-01   1.400527834480000E-01
   1.414603373220000E-01   1.428820373480000E-01   1.443180256970000E-01
   1.457684459680000E-01   1.472334432060000E-01   1.487131639110000E-01
   1.502077560550000E-01   1.517173691010000E-01   1.532421540100000E-01
   1.547822632620000E-01   1.563378508700000E-01   1.579090723930000E-01
   1.594960849540000E-01   1.610990472570000E-01   1.627181195990000E-01
   1.643534638890000E-01   1.660052436620000E-01   1.676736240980000E-01
   1.693587720350000E-01   1.710608559910000E-01   1.727800461760000E-01
   1.745165145090000E-01   1.762704346380000E-01   1.780419819580000E-01
   1.798313336250000E-01   1.816386685750000E-01   1.834641675430000E-01
   1.853080130810000E-01   1.871703895740000E-01   1.890514832630000E-01
   1.909514822570000E-01   1.928705765590000E-01   1.948089580790000E-01
   1.967668206570000E-01   1.987443600810000E-01   2.007417741070000E-01
   2.027592624780000E-01   2.047970269430000E-01   2.068552712830000E-01
   2.089342013210000E-01   2.110340249540000E-01   2.131549521650000E-01
   2.152971950490000E-01   2.174609678320000E-01   2.196464868930000E-01
   2.218539707860000E-01   2.240836402610000E-01   2.263357182860000E-01
   2.286104300720000E-01   2.309080030920000E-01   2.332286671040000E-01
   2.355726541770000E-01   2.379401987120000E-01   2.403315374650000E-01
   2.427469095720000E-01   2.451865565720000E-01   2.476507224330000E-01
   2.501396535720000E-01   2.526535988850000E-01   2.551928097680000E-01
   2.577575401450000E-01   2.603480464900000E-01   2.629645878580000E-01
   2.656074259030000E-01   2.682768249120000E-01   2.709730518270000E-01
   2.736963762730000E-01   2.764470705850000E-01   2.792254098340000E-01
   2.820316718570000E-01   2.848661372830000E-01   2.877290895590000E-01
   2.906208149840000E-01   2.935416027330000E-01   2.964917448860000E-01
   2.994715364610000E-01   3.024812754400000E-01   3.055212627980000E-01
   3.085918025370000E-01   3.116932017130000E-01   3.148257704690000E-01
   3.179898220650000E-01   3.211856729080000E-01   3.244136425850000E-01
   3.276740538980000E-01   3.309672328890000E-01   3.342935088780000E-01
   3.376532144980000E-01   3.410466857200000E-01   3.444742618950000E-01
   3.479362857830000E-01   3.514331035900000E-01   3.549650650000000E-01
   3.585325232120000E-01   3.621358349760000E-01   3.657753606240000E-01
   3.694514641140000E-01   3.731645130580000E-01   3.769148787640000E-01
   3.807029362720000E-01   3.845290643910000E-01   3.883936457370000E-01
   3.922970667710000E-01   3.962397178390000E-01   4.002219932080000E-01
   4.042442911110000E-01   4.083070137790000E-01   4.124105674890000E-01
   4.165553626000000E-01   4.207418135940000E-01   4.249703391200000E-01
   4.292413620340000E-01   4.335553094420000E-01   4.379126127420000E-01
   4.423137076680000E-01   4.467590343340000E-01   4.512490372750000E-01
   4.557841654960000E-01   4.603648725140000E-01   4.649916164020000E-01
   4.696648598400000E-01   4.743850701550000E-01   4.791527193720000E-01
   4.839682842610000E-01   4.888322463810000E-01   4.937450921330000E-01
   4.987073128060000E-01   5.037194046260000E-01   5.087818688060000E-01
   5.138952115970000E-01   5.190599443370000E-01   5.242765835040000E-01
   5.295456507670000E-01   5.348676730360000E-01   5.402431825180000E-01
   5.456727167680000E-01   5.511568187450000E-01   5.566960368630000E-01
   5.622909250480000E-01   5.679420427950000E-01   5.736499552190000E-01
   5.794152331170001E-01   5.852384530210000E-01   5.911201972580000E-01
   5.970610540070000E-01   6.030616173590000E-01   6.091224873760001E-01
   6.152442701490000E-01   6.214275778610000E-01   6.276730288500000E-01
   6.339812476640000E-01   6.403528651310000E-01   6.467885184180000E-01
   6.532888510970000E-01   6.598545132040000E-01   6.664861613130000E-01
   6.731844585940000E-01   6.799500748810000E-01   6.867836867430001E-01
   6.936859775450001E-01   7.006576375230000E-01   7.076993638490000E-01
   7.148118607010000E-01   7.219958393350000E-01   7.292520181540000E-01
   7.365811227830000E-01   7.439838861380000E-01   7.514610485020000E-01
   7.590133575969999E-01   7.666415686600000E-01   7.743464445180001E-01
   7.821287556670000E-01   7.899892803430000E-01   7.979288046050000E-01
   8.059481224120000E-01   8.140480357040000E-01   8.222293544770000E-01
   8.304928968710000E-01   8.388394892470000E-01   8.472699662710000E-01
   8.557851709970000E-01   8.643859549539999E-01   8.730731782259999E-01
   8.818477095440000E-01   8.907104263680000E-01   8.996622149760000E-01
   9.087039705560001E-01   9.178365972900000E-01   9.270610084490000E-01
   9.363781264810001E-01   9.457888831060000E-01   9.552942194080000E-01
   9.648950859270000E-01   9.745924427600000E-01   9.843872596480000E-01
   9.942805160830001E-01   1.004273201400000E+00   1.014366314870000E+00
   1.024560865820000E+00   1.034857873710000E+00   1.045258368250000E+00
   1.055763389500000E+00   1.066373987960000E+00   1.077091224710000E+00
   1.087916171490000E+00   1.098849910780000E+00   1.109893535990000E+00
   1.121048151470000E+00   1.132314872700000E+00   1.143694826360000E+00
   1.155189150460000E+00   1.166798994440000E+00   1.178525519290000E+00
   1.190369897670000E+00   1.202333314030000E+00   1.214416964730000E+00
   1.226622058130000E+00   1.238949814770000E+00   1.251401467420000E+00