<UPF version="2.0.1">
  <PP_INFO>
    Generated by new atomic code, or converted to UPF format
    Author: 
    Generation date: 
    Pseudopotential type: NC
    Element: H
    Functional:  SLA  PW   SCAN SCAN
    Suggested minimum cutoff for wavefunctions:   0. Ry
    Suggested minimum cutoff for charge density:   0. Ry
    The Pseudo was generated with a Non-Relativistic Calculation
    L component and cutoff radius for Local Potential:  0   0.0000
    Valence configuration: 
    nl pn  l   occ       Rcut    Rcut US       E pseu
    Generation configuration: not available.
  </PP_INFO>
    <!-- END OF HUMAN READABLE SECTION -->
  <PP_HEADER generated="Generated by new atomic code, or converted to UPF format" author="" date="" comment="" element="H" pseudo_type="NC" relativistic="no" is_ultrasoft="false" is_paw="false" is_coulomb="false" has_so="false" has_wfc="false" has_gipaw="false" paw_as_gipaw="false" core_correction="false" functional=" SLA  PW   SCAN SCAN" z_valence="1.00000000000000" total_psenergy="0.000000000000000E+000" wfc_cutoff="0.000000000000000E+000" rho_cutoff="0.000000000000000E+000" l_max="0" l_max_rho="0" l_local="0" mesh_size="2419" number_of_wfc="0" number_of_proj="0"/>
  <PP_MESH>
    <PP_R>
   3.562064783070000E-04   3.579919707100000E-04   3.597864129300000E-04
   3.615898498300000E-04   3.634023264950000E-04   3.652238882370000E-04
   3.670545805950000E-04   3.688944493370000E-04   3.707435404590000E-04
   3.726019001890000E-04   3.744695749860000E-04   3.763466115420000E-04
   3.782330567830000E-04   3.801289578690000E-04   3.820343622000000E-04
   3.839493174100000E-04   3.858738713720000E-04   3.878080722010000E-04
   3.897519682530000E-04   3.917056081240000E-04   3.936690406550000E-04
   3.956423149330000E-04   3.976254802900000E-04   3.996185863040000E-04
   4.016216828030000E-04   4.036348198660000E-04   4.056580478200000E-04
   4.076914172470000E-04   4.097349789800000E-04   4.117887841090000E-04
   4.138528839790000E-04   4.159273301920000E-04   4.180121746110000E-04
   4.201074693560000E-04   4.222132668090000E-04   4.243296196160000E-04
   4.264565806860000E-04   4.285942031920000E-04   4.307425405760000E-04
   4.329016465450000E-04   4.350715750790000E-04   4.372523804240000E-04
   4.394441171020000E-04   4.416468399050000E-04   4.438606039030000E-04
   4.460854644390000E-04   4.483214771340000E-04   4.505686978900000E-04
   4.528271828870000E-04   4.550969885870000E-04   4.573781717350000E-04
   4.596707893620000E-04   4.619748987820000E-04   4.642905575980000E-04
   4.666178237030000E-04   4.689567552780000E-04   4.713074107960000E-04
   4.736698490240000E-04   4.760441290220000E-04   4.784303101490000E-04
   4.808284520580000E-04   4.832386147040000E-04   4.856608583400000E-04
   4.880952435230000E-04   4.905418311130000E-04   4.930006822740000E-04
   4.954718584770000E-04   4.979554215030001E-04   5.004514334410000E-04
   5.029599566900000E-04   5.054810539640001E-04   5.080147882910000E-04
   5.105612230140000E-04   5.131204217950000E-04   5.156924486120000E-04
   5.182773677680000E-04   5.208752438850000E-04   5.234861419100000E-04
   5.261101271160000E-04   5.287472651030000E-04   5.313976217980000E-04
   5.340612634620000E-04   5.367382566850000E-04   5.394286683930000E-04
   5.421325658460000E-04   5.448500166400000E-04   5.475810887140000E-04
   5.503258503440000E-04   5.530843701480001E-04   5.558567170900000E-04
   5.586429604790000E-04   5.614431699720000E-04   5.642574155730000E-04
   5.670857676380000E-04   5.699282968780000E-04   5.727850743540000E-04
   5.756561714870000E-04   5.785416600550000E-04   5.814416121940000E-04
   5.843561004030000E-04   5.872851975460000E-04   5.902289768490000E-04
   5.931875119070000E-04   5.961608766840000E-04   5.991491455140000E-04
   6.021523931040000E-04   6.051706945350000E-04   6.082041252650000E-04
   6.112527611300000E-04   6.143166783450000E-04   6.173959535100000E-04
   6.204906636050000E-04   6.236008859989999E-04   6.267266984480000E-04
   6.298681790980000E-04   6.330254064839999E-04   6.361984595390000E-04
   6.393874175880000E-04   6.425923603560000E-04   6.458133679660000E-04
   6.490505209440000E-04   6.523039002189999E-04   6.555735871260000E-04
   6.588596634060000E-04   6.621622112120000E-04   6.654813131080000E-04
   6.688170520720000E-04   6.721695114960000E-04   6.755387751940000E-04
   6.789249273960000E-04   6.823280527560000E-04   6.857482363540000E-04
   6.891855636930000E-04   6.926401207070000E-04   6.961119937600000E-04
   6.996012696490000E-04   7.031080356060000E-04   7.066323793010000E-04
   7.101743888429999E-04   7.137341527800000E-04   7.173117601090000E-04
   7.209073002700000E-04   7.245208631500000E-04   7.281525390890000E-04
   7.318024188800000E-04   7.354705937700000E-04   7.391571554629999E-04
   7.428621961230000E-04   7.465858083770000E-04   7.503280853150000E-04
   7.540891204940000E-04   7.578690079400000E-04   7.616678421510000E-04
   7.654857180980000E-04   7.693227312270000E-04   7.731789774650000E-04
   7.770545532180000E-04   7.809495553740000E-04   7.848640813110000E-04
   7.887982288900000E-04   7.927520964660000E-04   7.967257828860000E-04
   8.007193874920001E-04   8.047330101250000E-04   8.087667511240000E-04
   8.128207113350000E-04   8.168949921050000E-04   8.209896952930000E-04
   8.251049232660000E-04   8.292407789050000E-04   8.333973656070000E-04
   8.375747872860000E-04   8.417731483790000E-04   8.459925538440000E-04
   8.502331091670000E-04   8.544949203620000E-04   8.587780939740000E-04
   8.630827370840000E-04   8.674089573070000E-04   8.717568627990000E-04
   8.761265622580000E-04   8.805181649270000E-04   8.849317805960000E-04
   8.893675196050000E-04   8.938254928490000E-04   8.983058117760000E-04
   9.028085883960000E-04   9.073339352770000E-04   9.118819655550000E-04
   9.164527929280000E-04   9.210465316690000E-04   9.256632966220000E-04
   9.303032032050000E-04   9.349663674170000E-04   9.396529058360000E-04
   9.443629356270001E-04   9.490965745410000E-04   9.538539409180000E-04
   9.586351536940000E-04   9.634403323980001E-04   9.682695971610000E-04
   9.731230687150001E-04   9.780008683949999E-04   9.829031181489999E-04
   9.878299405310001E-04   9.927814587140000E-04   9.977577964840000E-04
   1.002759078250000E-03   1.007785429050000E-03   1.012836974530000E-03
   1.017913841000000E-03   1.023016155360000E-03   1.028144045170000E-03
   1.033297638650000E-03   1.038477064620000E-03   1.043682452560000E-03
   1.048913932630000E-03   1.054171635590000E-03   1.059455692910000E-03
   1.064766236670000E-03   1.070103399640000E-03   1.075467315250000E-03
   1.080858117600000E-03   1.086275941460000E-03   1.091720922280000E-03
   1.097193196180000E-03   1.102692899960000E-03   1.108220171120000E-03
   1.113775147840000E-03   1.119357969010000E-03   1.124968774170000E-03
   1.130607703620000E-03   1.136274898320000E-03   1.141970499950000E-03
   1.147694650900000E-03   1.153447494280000E-03   1.159229173900000E-03
   1.165039834320000E-03   1.170879620790000E-03   1.176748679310000E-03
   1.182647156620000E-03   1.188575200160000E-03   1.194532958140000E-03
   1.200520579510000E-03   1.206538213960000E-03   1.212586011920000E-03
   1.218664124600000E-03   1.224772703950000E-03   1.230911902670000E-03
   1.237081874260000E-03   1.243282772960000E-03   1.249514753790000E-03
   1.255777972560000E-03   1.262072585840000E-03   1.268398751010000E-03
   1.274756626200000E-03   1.281146370380000E-03   1.287568143290000E-03
   1.294022105470000E-03   1.300508418260000E-03   1.307027243840000E-03
   1.313578745160000E-03   1.320163086020000E-03   1.326780431030000E-03
   1.333430945610000E-03   1.340114796040000E-03   1.346832149410000E-03
   1.353583173660000E-03   1.360368037550000E-03   1.367186910710000E-03
   1.374039963620000E-03   1.380927367600000E-03   1.387849294840000E-03
   1.394805918380000E-03   1.401797412140000E-03   1.408823950910000E-03
   1.415885710350000E-03   1.422982867000000E-03   1.430115598310000E-03
   1.437284082580000E-03   1.444488499020000E-03   1.451729027750000E-03
   1.459005849790000E-03   1.466319147040000E-03   1.473669102350000E-03
   1.481055899470000E-03   1.488479723060000E-03   1.495940758720000E-03
   1.503439192980000E-03   1.510975213290000E-03   1.518549008070000E-03
   1.526160766650000E-03   1.533810679320000E-03   1.541498937350000E-03
   1.549225732930000E-03   1.556991259230000E-03   1.564795710390000E-03
   1.572639281530000E-03   1.580522168740000E-03   1.588444569080000E-03
   1.596406680610000E-03   1.604408702400000E-03   1.612450834490000E-03
   1.620533277930000E-03   1.628656234790000E-03   1.636819908140000E-03
   1.645024502070000E-03   1.653270221700000E-03   1.661557273170000E-03
   1.669885863660000E-03   1.678256201390000E-03   1.686668495610000E-03
   1.695122956620000E-03   1.703619795800000E-03   1.712159225570000E-03
   1.720741459400000E-03   1.729366711860000E-03   1.738035198570000E-03
   1.746747136260000E-03   1.755502742720000E-03   1.764302236830000E-03
   1.773145838600000E-03   1.782033769100000E-03   1.790966250540000E-03
   1.799943506230000E-03   1.808965760600000E-03   1.818033239210000E-03
   1.827146168740000E-03   1.836304777030000E-03   1.845509293030000E-03
   1.854759946860000E-03   1.864056969780000E-03   1.873400594220000E-03
   1.882791053780000E-03   1.892228583210000E-03   1.901713418450000E-03
   1.911245796630000E-03   1.920825956060000E-03   1.930454136230000E-03
   1.940130577850000E-03   1.949855522850000E-03   1.959629214330000E-03
   1.969451896640000E-03   1.979323815350000E-03   1.989245217270000E-03
   1.999216350410000E-03   2.009237464070000E-03   2.019308808770000E-03
   2.029430636300000E-03   2.039603199690000E-03   2.049826753280000E-03
   2.060101552640000E-03   2.070427854640000E-03   2.080805917450000E-03
   2.091236000520000E-03   2.101718364590000E-03   2.112253271730000E-03
   2.122840985320000E-03   2.133481770040000E-03   2.144175891910000E-03
   2.154923618300000E-03   2.165725217880000E-03   2.176580960720000E-03
   2.187491118180000E-03   2.198455963040000E-03   2.209475769420000E-03
   2.220550812800000E-03   2.231681370070000E-03   2.242867719490000E-03
   2.254110140710000E-03   2.265408914810000E-03   2.276764324250000E-03
   2.288176652920000E-03   2.299646186120000E-03   2.311173210600000E-03
   2.322758014530000E-03   2.334400887530000E-03   2.346102120670000E-03
   2.357862006490000E-03   2.369680838980000E-03   2.381558913620000E-03
   2.393496527350000E-03   2.405493978620000E-03   2.417551567360000E-03
   2.429669595020000E-03   2.441848364550000E-03   2.454088180410000E-03
   2.466389348610000E-03   2.478752176670000E-03   2.491176973660000E-03
   2.503664050200000E-03   2.516213718480000E-03   2.528826292230000E-03
   2.541502086770000E-03   2.554241418990000E-03   2.567044607390000E-03
   2.579911972030000E-03   2.592843834600000E-03   2.605840518410000E-03
   2.618902348360000E-03   2.632029651010000E-03   2.645222754540000E-03
   2.658481988780000E-03   2.671807685200000E-03   2.685200176950000E-03
   2.698659798850000E-03   2.712186887390000E-03   2.725781780730000E-03
   2.739444818770000E-03   2.753176343070000E-03   2.766976696910000E-03
   2.780846225330000E-03   2.794785275040000E-03   2.808794194530000E-03
   2.822873334020000E-03   2.837023045490000E-03   2.851243682680000E-03
   2.865535601110000E-03   2.879899158090000E-03   2.894334712690000E-03
   2.908842625810000E-03   2.923423260150000E-03   2.938076980220000E-03
   2.952804152370000E-03   2.967605144780000E-03   2.982480327470000E-03
   2.997430072330000E-03   3.012454753090000E-03   3.027554745380000E-03
   3.042730426690000E-03   3.057982176420000E-03   3.073310375870000E-03
   3.088715408240000E-03   3.104197658650000E-03   3.119757514160000E-03
   3.135395363780000E-03   3.151111598440000E-03   3.166906611060000E-03
   3.182780796510000E-03   3.198734551640000E-03   3.214768275310000E-03
   3.230882368340000E-03   3.247077233610000E-03   3.263353275980000E-03
   3.279710902340000E-03   3.296150521650000E-03   3.312672544900000E-03
   3.329277385130000E-03   3.345965457470000E-03   3.362737179120000E-03
   3.379592969380000E-03   3.396533249630000E-03   3.413558443400000E-03
   3.430668976300000E-03   3.447865276100000E-03   3.465147772720000E-03
   3.482516898210000E-03   3.499973086810000E-03   3.517516774910000E-03
   3.535148401120000E-03   3.552868406220000E-03   3.570677233220000E-03
   3.588575327330000E-03   3.606563136020000E-03   3.624641108970000E-03
   3.642809698130000E-03   3.661069357730000E-03   3.679420544250000E-03
   3.697863716480000E-03   3.716399335500000E-03   3.735027864690000E-03
   3.753749769770000E-03   3.772565518790000E-03   3.791475582150000E-03
   3.810480432590000E-03   3.829580545240000E-03   3.848776397610000E-03
   3.868068469590000E-03   3.887457243480000E-03   3.906943204000000E-03
   3.926526838310000E-03   3.946208635990000E-03   3.965989089090000E-03
   3.985868692130000E-03   4.005847942090000E-03   4.025927338460000E-03
   4.046107383220000E-03   4.066388580880000E-03   4.086771438460000E-03
   4.107256465550000E-03   4.127844174260000E-03   4.148535079280000E-03
   4.169329697900000E-03   4.190228549980000E-03   4.211232158000000E-03
   4.232341047030000E-03   4.253555744820000E-03   4.274876781710000E-03
   4.296304690750000E-03   4.317840007630000E-03   4.339483270740000E-03
   4.361235021150000E-03   4.383095802670000E-03   4.405066161810000E-03
   4.427146647830000E-03   4.449337812750000E-03   4.471640211350000E-03
   4.494054401180000E-03   4.516580942610000E-03   4.539220398800000E-03
   4.561973335740000E-03   4.584840322240000E-03   4.607821929990000E-03
   4.630918733530000E-03   4.654131310280000E-03   4.677460240560000E-03
   4.700906107580000E-03   4.724469497510000E-03   4.748150999410000E-03
   4.771951205340000E-03   4.795870710300000E-03   4.819910112270000E-03
   4.844070012250000E-03   4.868351014230000E-03   4.892753725240000E-03
   4.917278755350000E-03   4.941926717680000E-03   4.966698228440000E-03
   4.991593906910000E-03   5.016614375490000E-03   5.041760259690000E-03
   5.067032188160000E-03   5.092430792700000E-03   5.117956708270000E-03
   5.143610573030000E-03   5.169393028320000E-03   5.195304718710000E-03
   5.221346291980000E-03   5.247518399180000E-03   5.273821694620000E-03
   5.300256835870000E-03   5.326824483820000E-03   5.353525302660000E-03
   5.380359959910000E-03   5.407329126440000E-03   5.434433476480000E-03
   5.461673687640000E-03   5.489050440930000E-03   5.516564420760000E-03
   5.544216314990000E-03   5.572006814920000E-03   5.599936615310000E-03
   5.628006414400000E-03   5.656216913950000E-03   5.684568819220000E-03
   5.713062839000000E-03   5.741699685650000E-03   5.770480075100000E-03
   5.799404726840000E-03   5.828474364010000E-03   5.857689713340000E-03
   5.887051505210000E-03   5.916560473680000E-03   5.946217356470000E-03
   5.976022895010000E-03   6.005977834420000E-03   6.036082923600000E-03
   6.066338915160000E-03   6.096746565520000E-03   6.127306634850000E-03
   6.158019887170000E-03   6.188887090310000E-03   6.219909015940000E-03
   6.251086439630000E-03   6.282420140800000E-03   6.313910902800000E-03
   6.345559512910000E-03   6.377366762330000E-03   6.409333446260000E-03
   6.441460363850000E-03   6.473748318290000E-03   6.506198116770000E-03
   6.538810570550000E-03   6.571586494930000E-03   6.604526709310000E-03
   6.637632037210000E-03   6.670903306260000E-03   6.704341348230000E-03
   6.737946999090000E-03   6.771721098970000E-03   6.805664492230000E-03
   6.839778027460000E-03   6.874062557500000E-03   6.908518939450000E-03
   6.943148034750000E-03   6.977950709100000E-03   7.012927832590000E-03
   7.048080279630000E-03   7.083408929050000E-03   7.118914664060000E-03
   7.154598372310000E-03   7.190460945900000E-03   7.226503281380000E-03
   7.262726279810000E-03   7.299130846790000E-03   7.335717892410000E-03
   7.372488331370000E-03   7.409443082910000E-03   7.446583070920000E-03
   7.483909223900000E-03   7.521422474990000E-03   7.559123762040000E-03
   7.597014027580000E-03   7.635094218860000E-03   7.673365287900000E-03
   7.711828191460000E-03   7.750483891140000E-03   7.789333353310000E-03
   7.828377549229999E-03   7.867617454989999E-03   7.907054051590000E-03
   7.946688324960000E-03   7.986521265960000E-03   8.026553870400001E-03
   8.066787139099999E-03   8.107222077900000E-03   8.147859697679999E-03
   8.188701014370000E-03   8.229747049020001E-03   8.270998827770000E-03
   8.312457381920000E-03   8.354123747940000E-03   8.395998967490000E-03
   8.438084087450001E-03   8.480380159950000E-03   8.522888242400000E-03
   8.565609397500000E-03   8.608544693280000E-03   8.651695203119999E-03
   8.695062005799999E-03   8.738646185470000E-03   8.782448831759999E-03
   8.826471039729999E-03   8.870713909930000E-03   8.915178548439999E-03
   8.959866066880000E-03   9.004777582439999E-03   9.049914217899999E-03
   9.095277101700000E-03   9.140867367890000E-03   9.186686156240000E-03
   9.232734612230000E-03   9.279013887059999E-03   9.325525137730000E-03
   9.372269527010001E-03   9.419248223510000E-03   9.466462401710000E-03
   9.513913241959999E-03   9.561601930540000E-03   9.609529659670000E-03
   9.657697627540001E-03   9.706107038350001E-03   9.754759102339999E-03
   9.803655035819999E-03   9.852796061190000E-03   9.902183406970000E-03
   9.951818307850000E-03   1.000170200470000E-02   1.005183574460000E-02
   1.010222078100000E-02   1.015285837340000E-02   1.020374978770000E-02
   1.025489629640000E-02   1.030629917800000E-02   1.035795971760000E-02
   1.040987920680000E-02   1.046205894340000E-02   1.051450023210000E-02
   1.056720438390000E-02   1.062017271630000E-02   1.067340655350000E-02
   1.072690722650000E-02   1.078067607270000E-02   1.083471443640000E-02
   1.088902366860000E-02   1.094360512680000E-02   1.099846017580000E-02
   1.105359018690000E-02   1.110899653820000E-02   1.116468061510000E-02
   1.122064380960000E-02   1.127688752070000E-02   1.133341315470000E-02
   1.139022212450000E-02   1.144731585050000E-02   1.150469576000000E-02
   1.156236328750000E-02   1.162031987460000E-02   1.167856697040000E-02
   1.173710603090000E-02   1.179593851980000E-02   1.185506590760000E-02
   1.191448967280000E-02   1.197421130080000E-02   1.203423228470000E-02
   1.209455412510000E-02   1.215517832990000E-02   1.221610641480000E-02
   1.227733990310000E-02   1.233888032540000E-02   1.240072922040000E-02
   1.246288813430000E-02   1.252535862110000E-02   1.258814224240000E-02
   1.265124056800000E-02   1.271465517520000E-02   1.277838764950000E-02
   1.284243958420000E-02   1.290681258050000E-02   1.297150824780000E-02
   1.303652820340000E-02   1.310187407300000E-02   1.316754749010000E-02
   1.323355009650000E-02   1.329988354240000E-02   1.336654948610000E-02
   1.343354959420000E-02   1.350088554180000E-02   1.356855901220000E-02
   1.363657169730000E-02   1.370492529740000E-02   1.377362152130000E-02
   1.384266208650000E-02   1.391204871890000E-02   1.398178315330000E-02
   1.405186713300000E-02   1.412230241020000E-02   1.419309074560000E-02
   1.426423390900000E-02   1.433573367900000E-02   1.440759184310000E-02
   1.447981019780000E-02   1.455239054840000E-02   1.462533470960000E-02
   1.469864450490000E-02   1.477232176710000E-02   1.484636833810000E-02
   1.492078606910000E-02   1.499557682050000E-02   1.507074246210000E-02
   1.514628487300000E-02   1.522220594190000E-02   1.529850756670000E-02
   1.537519165500000E-02   1.545226012390000E-02   1.552971490010000E-02
   1.560755792000000E-02   1.568579112960000E-02   1.576441648490000E-02
   1.584343595130000E-02   1.592285150450000E-02   1.600266512980000E-02
   1.608287882260000E-02   1.616349458820000E-02   1.624451444190000E-02
   1.632594040940000E-02   1.640777452630000E-02   1.649001883840000E-02
   1.657267540180000E-02   1.665574628290000E-02   1.673923355860000E-02
   1.682313931600000E-02   1.690746565270000E-02   1.699221467700000E-02
   1.707738850750000E-02   1.716298927360000E-02   1.724901911530000E-02
   1.733548018350000E-02   1.742237463950000E-02   1.750970465580000E-02
   1.759747241560000E-02   1.768568011320000E-02   1.777432995370000E-02
   1.786342415330000E-02   1.795296493950000E-02   1.804295455080000E-02
   1.813339523680000E-02   1.822428925870000E-02   1.831563888870000E-02
   1.840744641070000E-02   1.849971411980000E-02   1.859244432270000E-02
   1.868563933770000E-02   1.877930149470000E-02   1.887343313520000E-02
   1.896803661240000E-02   1.906311429160000E-02   1.915866854960000E-02
   1.925470177540000E-02   1.935121636970000E-02   1.944821474540000E-02
   1.954569932750000E-02   1.964367255310000E-02   1.974213687150000E-02
   1.984109474440000E-02   1.994054864560000E-02   2.004050106170000E-02
   2.014095449130000E-02   2.024191144580000E-02   2.034337444920000E-02
   2.044534603790000E-02   2.054782876140000E-02   2.065082518170000E-02
   2.075433787370000E-02   2.085836942520000E-02   2.096292243710000E-02
   2.106799952300000E-02   2.117360331010000E-02   2.127973643840000E-02
   2.138640156120000E-02   2.149360134510000E-02   2.160133847020000E-02
   2.170961562980000E-02   2.181843553100000E-02   2.192780089430000E-02
   2.203771445360000E-02   2.214817895700000E-02   2.225919716610000E-02
   2.237077185620000E-02   2.248290581670000E-02   2.259560185110000E-02
   2.270886277670000E-02   2.282269142510000E-02   2.293709064190000E-02
   2.305206328720000E-02   2.316761223530000E-02   2.328374037490000E-02
   2.340045060920000E-02   2.351774585600000E-02   2.363562904770000E-02
   2.375410313130000E-02   2.387317106870000E-02   2.399283583670000E-02
   2.411310042680000E-02   2.423396784570000E-02   2.435544111500000E-02
   2.447752327170000E-02   2.460021736760000E-02   2.472352647030000E-02
   2.484745366250000E-02   2.497200204230000E-02   2.509717472340000E-02
   2.522297483520000E-02   2.534940552270000E-02   2.547646994670000E-02
   2.560417128370000E-02   2.573251272640000E-02   2.586149748320000E-02
   2.599112877880000E-02   2.612140985390000E-02   2.625234396570000E-02
   2.638393438740000E-02   2.651618440890000E-02   2.664909733640000E-02
   2.678267649260000E-02   2.691692521720000E-02   2.705184686640000E-02
   2.718744481310000E-02   2.732372244730000E-02   2.746068317600000E-02
   2.759833042320000E-02   2.773666763020000E-02   2.787569825520000E-02
   2.801542577420000E-02   2.815585368030000E-02   2.829698548420000E-02
   2.843882471420000E-02   2.858137491630000E-02   2.872463965420000E-02
   2.886862250970000E-02   2.901332708220000E-02   2.915875698940000E-02
   2.930491586700000E-02   2.945180736910000E-02   2.959943516790000E-02
   2.974780295410000E-02   2.989691443690000E-02   3.004677334420000E-02
   3.019738342230000E-02   3.034874843660000E-02   3.050087217120000E-02
   3.065375842920000E-02   3.080741103280000E-02   3.096183382320000E-02
   3.111703066110000E-02   3.127300542630000E-02   3.142976201840000E-02
   3.158730435610000E-02   3.174563637810000E-02   3.190476204260000E-02
   3.206468532790000E-02   3.222541023190000E-02   3.238694077290000E-02
   3.254928098910000E-02   3.271243493900000E-02   3.287640670150000E-02
   3.304120037590000E-02   3.320682008200000E-02   3.337326996030000E-02
   3.354055417210000E-02   3.370867689960000E-02   3.387764234570000E-02
   3.404745473460000E-02   3.421811831170000E-02   3.438963734350000E-02
   3.456201611800000E-02   3.473525894470000E-02   3.490937015480000E-02
   3.508435410080000E-02   3.526021515760000E-02   3.543695772160000E-02
   3.561458621140000E-02   3.579310506770000E-02   3.597251875340000E-02
   3.615283175400000E-02   3.633404857730000E-02   3.651617375370000E-02
   3.669921183640000E-02   3.688316740120000E-02   3.706804504720000E-02
   3.725384939620000E-02   3.744058509340000E-02   3.762825680720000E-02
   3.781686922930000E-02   3.800642707520000E-02   3.819693508370000E-02
   3.838839801760000E-02   3.858082066340000E-02   3.877420783170000E-02
   3.896856435730000E-02   3.916389509900000E-02   3.936020494010000E-02
   3.955749878840000E-02   3.975578157620000E-02   3.995505826070000E-02
   4.015533382360000E-02   4.035661327200000E-02   4.055890163790000E-02
   4.076220397840000E-02   4.096652537610000E-02   4.117187093910000E-02
   4.137824580100000E-02   4.158565512120000E-02   4.179410408490000E-02
   4.200359790340000E-02   4.221414181410000E-02   4.242574108050000E-02
   4.263840099270000E-02   4.285212686700000E-02   4.306692404680000E-02
   4.328279790200000E-02   4.349975382930000E-02   4.371779725280000E-02
   4.393693362340000E-02   4.415716841970000E-02   4.437850714750000E-02
   4.460095534030000E-02   4.482451855930000E-02   4.504920239360000E-02
   4.527501246030000E-02   4.550195440460000E-02   4.573003390020000E-02
   4.595925664900000E-02   4.618962838170000E-02   4.642115485740000E-02
   4.665384186450000E-02   4.688769522000000E-02   4.712272077030000E-02
   4.735892439110000E-02   4.759631198750000E-02   4.783488949420000E-02
   4.807466287560000E-02   4.831563812610000E-02   4.855782127000000E-02
   4.880121836200000E-02   4.904583548700000E-02   4.929167876050000E-02
   4.953875432840000E-02   4.978706836790000E-02   5.003662708660000E-02
   5.028743672360000E-02   5.053950354910000E-02   5.079283386490000E-02
   5.104743400420000E-02   5.130331033190000E-02   5.156046924510000E-02
   5.181891717270000E-02   5.207866057600000E-02   5.233970594840000E-02
   5.260205981630000E-02   5.286572873840000E-02   5.313071930640000E-02
   5.339703814520000E-02   5.366469191270000E-02   5.393368730040000E-02
   5.420403103300000E-02   5.447572986920000E-02   5.474879060150000E-02
   5.502322005640000E-02   5.529902509470000E-02   5.557621261150000E-02
   5.585478953650000E-02   5.613476283410000E-02   5.641613950380000E-02
   5.669892657980000E-02   5.698313113200000E-02   5.726876026550000E-02
   5.755582112090000E-02   5.784432087480000E-02   5.813426673980000E-02
   5.842566596450000E-02   5.871852583390000E-02   5.901285366940000E-02
   5.930865682940000E-02   5.960594270890000E-02   5.990471874010000E-02
   6.020499239240000E-02   6.050677117260000E-02   6.081006262520000E-02
   6.111487433260000E-02   6.142121391500000E-02   6.172908903100000E-02
   6.203850737740000E-02   6.234947668970000E-02   6.266200474220000E-02
   6.297609934800000E-02   6.329176835960000E-02   6.360901966880000E-02
   6.392786120670001E-02   6.424830094450000E-02   6.457034689320000E-02
   6.489400710390000E-02   6.521928966810001E-02   6.554620271800000E-02
   6.587475442640001E-02   6.620495300710000E-02   6.653680671499999E-02
   6.687032384659999E-02   6.720551273970000E-02   6.754238177419999E-02
   6.788093937179999E-02   6.822119399630000E-02   6.856315415430000E-02
   6.890682839470000E-02   6.925222530930000E-02   6.959935353330000E-02
   6.994822174470000E-02   7.029883866519999E-02   7.065121306039999E-02
   7.100535373960000E-02   7.136126955640000E-02   7.171896940859999E-02
   7.207846223880000E-02   7.243975703430000E-02   7.280286282740001E-02
   7.316778869600001E-02   7.353454376309999E-02   7.390313719760000E-02
   7.427357821430000E-02   7.464587607440000E-02   7.502004008530000E-02
   7.539607960109999E-02   7.577400402280000E-02   7.615382279860000E-02
   7.653554542389999E-02   7.691918144180000E-02   7.730474044330000E-02
   7.769223206730000E-02   7.808166600120001E-02   7.847305198070000E-02
   7.886639979070000E-02   7.926171926470001E-02   7.965902028590000E-02
   8.005831278670000E-02   8.045960674950001E-02   8.086291220670000E-02
   8.126823924090000E-02   8.167559798530000E-02   8.208499862389999E-02
   8.249645139170000E-02   8.290996657520000E-02   8.332555451210000E-02
   8.374322559220000E-02   8.416299025729999E-02   8.458485900160000E-02
   8.500884237170001E-02   8.543495096730000E-02   8.586319544120000E-02
   8.629358649940000E-02   8.672613490170000E-02   8.716085146200001E-02
   8.759774704810000E-02   8.803683258240000E-02   8.847811904210000E-02
   8.892161745940000E-02   8.936733892180000E-02   8.981529457220000E-02
   9.026549560980000E-02   9.071795328939999E-02   9.117267892260000E-02
   9.162968387750001E-02   9.208897957930000E-02   9.255057751030001E-02
   9.301448921070000E-02   9.348072627810000E-02   9.394930036849999E-02
   9.442022319630000E-02   9.489350653460001E-02   9.536916221550000E-02
   9.584720213050001E-02   9.632763823050000E-02   9.681048252650000E-02
   9.729574708950001E-02   9.778344405140001E-02   9.827358560440000E-02
   9.876618400209999E-02   9.926125155960000E-02   9.975880065360000E-02
   1.002588437230000E-01   1.007613932680000E-01   1.012664618540000E-01
   1.017740621060000E-01   1.022842067160000E-01   1.027969084350000E-01
   1.033121800830000E-01   1.038300345410000E-01   1.043504847550000E-01
   1.048735437360000E-01   1.053992245620000E-01   1.059275403740000E-01
   1.064585043790000E-01   1.069921298530000E-01   1.075284301360000E-01
   1.080674186350000E-01   1.086091088250000E-01   1.091535142480000E-01
   1.097006485160000E-01   1.102505253040000E-01   1.108031583620000E-01
   1.113585615050000E-01   1.119167486170000E-01   1.124777336540000E-01
   1.130415306400000E-01   1.136081536710000E-01   1.141776169110000E-01
   1.147499345970000E-01   1.153251210380000E-01   1.159031906130000E-01
   1.164841577730000E-01   1.170680370440000E-01   1.176548430220000E-01
   1.182445903770000E-01   1.188372938520000E-01   1.194329682670000E-01
   1.200316285110000E-01   1.206332895530000E-01   1.212379664330000E-01
   1.218456742690000E-01   1.224564282530000E-01   1.230702436540000E-01
   1.236871358170000E-01   1.243071201660000E-01   1.249302121990000E-01
   1.255564274930000E-01   1.261857817050000E-01   1.268182905680000E-01
   1.274539698950000E-01   1.280928355780000E-01   1.287349035880000E-01
   1.293801899770000E-01   1.300287108780000E-01   1.306804825040000E-01