<UPF version="2.0.1">
  <PP_INFO>
    Generated by new atomic code, or converted to UPF format
    Author: 
    Generation date: 
    Pseudopotential type: NC
    Element: He
    Functional:  SLA  PW   SCAN SCAN
    Suggested minimum cutoff for wavefunctions:   0. Ry
    Suggested minimum cutoff for charge density:   0. Ry
    The Pseudo was generated with a Non-Relativistic Calculation
    L component and cutoff radius for Local Potential:  0   0.0000
    Valence configuration: 
    nl pn  l   occ       Rcut    Rcut US       E pseu
    Generation configuration: not available.
  </PP_INFO>
    <!-- END OF HUMAN READABLE SECTION -->
  <PP_HEADER generated="Generated by new atomic code, or converted to UPF format" author="" date="" comment="" element="He" pseudo_type="NC" relativistic="no" is_ultrasoft="false" is_paw="false" is_coulomb="false" has_so="false" has_wfc="false" has_gipaw="false" paw_as_gipaw="false" core_correction="false" functional=" SLA  PW   SCAN SCAN" z_valence="2.00000000000000" total_psenergy="0.000000000000000E+000" wfc_cutoff="0.000000000000000E+000" rho_cutoff="0.000000000000000E+000" l_max="0" l_max_rho="0" l_local="0" mesh_size="1279" number_of_wfc="0" number_of_proj="0"/>
  <PP_MESH>
    <PP_R>
   1.891165283910000E-04   1.910171811000000E-04   1.929369356860000E-04
   1.948759841260000E-04   1.968345203280000E-04   1.988127401450000E-04
   2.008108414020000E-04   2.028290239100000E-04   2.048674894900000E-04
   2.069264419890000E-04   2.090060873060000E-04   2.111066334050000E-04
   2.132282903430000E-04   2.153712702880000E-04   2.175357875390000E-04
   2.197220585510000E-04   2.219303019510000E-04   2.241607385670000E-04
   2.264135914430000E-04   2.286890858680000E-04   2.309874493910000E-04
   2.333089118520000E-04   2.356537053980000E-04   2.380220645110000E-04
   2.404142260290000E-04   2.428304291700000E-04   2.452709155560000E-04
   2.477359292390000E-04   2.502257167200000E-04   2.527405269820000E-04
   2.552806115070000E-04   2.578462243060000E-04   2.604376219430000E-04
   2.630550635580000E-04   2.656988108990000E-04   2.683691283430000E-04
   2.710662829230000E-04   2.737905443570000E-04   2.765421850740000E-04
   2.793214802400000E-04   2.821287077860000E-04   2.849641484390000E-04
   2.878280857440000E-04   2.907208060970000E-04   2.936425987730000E-04
   2.965937559540000E-04   2.995745727570000E-04   3.025853472680000E-04
   3.056263805650000E-04   3.086979767550000E-04   3.118004430000000E-04
   3.149340895490000E-04   3.180992297690000E-04   3.212961801780000E-04
   3.245252604720000E-04   3.277867935630000E-04   3.310811056060000E-04
   3.344085260360000E-04   3.377693875970000E-04   3.411640263780000E-04
   3.445927818460000E-04   3.480559968800000E-04   3.515540178030000E-04
   3.550871944210000E-04   3.586558800550000E-04   3.622604315750000E-04
   3.659012094400000E-04   3.695785777310000E-04   3.732929041880000E-04
   3.770445602470000E-04   3.808339210750000E-04   3.846613656140000E-04
   3.885272766090000E-04   3.924320406550000E-04   3.963760482330000E-04
   4.003596937460000E-04   4.043833755620000E-04   4.084474960530000E-04
   4.125524616330000E-04   4.166986828030000E-04   4.208865741890000E-04
   4.251165545830000E-04   4.293890469870000E-04   4.337044786540000E-04
   4.380632811290000E-04   4.424658902980000E-04   4.469127464240000E-04
   4.514042941980000E-04   4.559409827770000E-04   4.605232658350000E-04
   4.651516016020000E-04   4.698264529180000E-04   4.745482872700000E-04
   4.793175768470000E-04   4.841347985810000E-04   4.890004341980000E-04
   4.939149702660000E-04   4.988788982420000E-04   5.038927145240000E-04
   5.089569204980000E-04   5.140720225870001E-04   5.192385323080000E-04
   5.244569663140000E-04   5.297278464540000E-04   5.350516998199999E-04
   5.404290588020000E-04   5.458604611400000E-04   5.513464499790000E-04
   5.568875739220000E-04   5.624843870870000E-04   5.681374491600000E-04
   5.738473254510000E-04   5.796145869520000E-04   5.854398103960000E-04
   5.913235783079999E-04   5.972664790710000E-04   6.032691069790000E-04
   6.093320623010001E-04   6.154559513369999E-04   6.216413864810000E-04
   6.278889862810000E-04   6.341993755040000E-04   6.405731851920000E-04
   6.470110527330000E-04   6.535136219180001E-04   6.600815430100000E-04
   6.667154728069999E-04   6.734160747060000E-04   6.801840187740000E-04
   6.870199818110000E-04   6.939246474180000E-04   7.008987060680000E-04
   7.079428551730000E-04   7.150577991540000E-04   7.222442495100000E-04
   7.295029248930000E-04   7.368345511770000E-04   7.442398615300000E-04
   7.517195964890000E-04   7.592745040340000E-04   7.669053396620000E-04
   7.746128664640000E-04   7.823978551970000E-04   7.902610843680000E-04
   7.982033403060000E-04   8.062254172430000E-04   8.143281173940000E-04
   8.225122510350000E-04   8.307786365870000E-04   8.391281006950000E-04
   8.475614783120000E-04   8.560796127829999E-04   8.646833559290000E-04
   8.733735681310000E-04   8.821511184170000E-04   8.910168845509999E-04
   8.999717531150000E-04   9.090166196050000E-04   9.181523885140000E-04
   9.273799734280000E-04   9.367002971110000E-04   9.461142916050000E-04
   9.556228983160000E-04   9.652270681140000E-04   9.749277614230000E-04
   9.847259483200001E-04   9.946226086330000E-04   1.004618732040000E-03
   1.014715318150000E-03   1.024913376640000E-03   1.035213927320000E-03
   1.045618000260000E-03   1.056126635870000E-03   1.066740885020000E-03
   1.077461809150000E-03   1.088290480360000E-03   1.099227981520000E-03
   1.110275406400000E-03   1.121433859740000E-03   1.132704457410000E-03
   1.144088326460000E-03   1.155586605300000E-03   1.167200443760000E-03
   1.178931003250000E-03   1.190779456810000E-03   1.202746989310000E-03
   1.214834797510000E-03   1.227044090210000E-03   1.239376088330000E-03
   1.251832025100000E-03   1.264413146110000E-03   1.277120709500000E-03
   1.289955986010000E-03   1.302920259200000E-03   1.316014825510000E-03
   1.329240994390000E-03   1.342600088480000E-03   1.356093443690000E-03
   1.369722409380000E-03   1.383488348460000E-03   1.397392637520000E-03
   1.411436667010000E-03   1.425621841340000E-03   1.439949579040000E-03
   1.454421312910000E-03   1.469038490110000E-03   1.483802572390000E-03
   1.498715036160000E-03   1.513777372690000E-03   1.528991088210000E-03
   1.544357704120000E-03   1.559878757080000E-03   1.575555799220000E-03
   1.591390398250000E-03   1.607384137650000E-03   1.623538616810000E-03
   1.639855451170000E-03   1.656336272450000E-03   1.672982728740000E-03
   1.689796484690000E-03   1.706779221700000E-03   1.723932638050000E-03
   1.741258449110000E-03   1.758758387460000E-03   1.776434203110000E-03
   1.794287663670000E-03   1.812320554480000E-03   1.830534678870000E-03
   1.848931858240000E-03   1.867513932340000E-03   1.886282759400000E-03
   1.905240216300000E-03   1.924388198810000E-03   1.943728621740000E-03
   1.963263419150000E-03   1.982994544550000E-03   2.002923971050000E-03
   2.023053691610000E-03   2.043385719230000E-03   2.063922087130000E-03
   2.084664848950000E-03   2.105616079000000E-03   2.126777872410000E-03
   2.148152345380000E-03   2.169741635370000E-03   2.191547901330000E-03
   2.213573323920000E-03   2.235820105670000E-03   2.258290471310000E-03
   2.280986667870000E-03   2.303910965000000E-03   2.327065655140000E-03
   2.350453053790000E-03   2.374075499710000E-03   2.397935355150000E-03
   2.422035006120000E-03   2.446376862620000E-03   2.470963358840000E-03
   2.495796953460000E-03   2.520880129850000E-03   2.546215396350000E-03
   2.571805286520000E-03   2.597652359350000E-03   2.623759199590000E-03
   2.650128417940000E-03   2.676762651330000E-03   2.703664563220000E-03
   2.730836843820000E-03   2.758282210380000E-03   2.786003407460000E-03
   2.814003207200000E-03   2.842284409610000E-03   2.870849842830000E-03
   2.899702363420000E-03   2.928844856670000E-03   2.958280236840000E-03
   2.988011447500000E-03   3.018041461800000E-03   3.048373282760000E-03
   3.079009943580000E-03   3.109954507970000E-03   3.141210070400000E-03
   3.172779756450000E-03   3.204666723130000E-03   3.236874159140000E-03
   3.269405285270000E-03   3.302263354660000E-03   3.335451653130000E-03
   3.368973499540000E-03   3.402832246120000E-03   3.437031278750000E-03
   3.471574017370000E-03   3.506463916290000E-03   3.541704464530000E-03
   3.577299186160000E-03   3.613251640690000E-03   3.649565423390000E-03
   3.686244165680000E-03   3.723291535460000E-03   3.760711237500000E-03
   3.798507013790000E-03   3.836682643950000E-03   3.875241945570000E-03
   3.914188774610000E-03   3.953527025800000E-03   3.993260632980000E-03
   4.033393569550000E-03   4.073929848840000E-03   4.114873524510000E-03
   4.156228690960000E-03   4.197999483750000E-03   4.240190079980000E-03
   4.282804698750000E-03   4.325847601560000E-03   4.369323092740000E-03
   4.413235519860000E-03   4.457589274220000E-03   4.502388791220000E-03
   4.547638550850000E-03   4.593343078120000E-03   4.639506943530000E-03
   4.686134763500000E-03   4.733231200860000E-03   4.780800965270000E-03
   4.828848813770000E-03   4.877379551170000E-03   4.926398030590000E-03
   4.975909153920000E-03   5.025917872320000E-03   5.076429186680000E-03
   5.127448148200000E-03   5.178979858810000E-03   5.231029471710000E-03
   5.283602191930000E-03   5.336703276760000E-03   5.390338036370000E-03
   5.444511834280000E-03   5.499230087900000E-03   5.554498269120000E-03
   5.610321904790000E-03   5.666706577330000E-03   5.723657925250000E-03
   5.781181643730000E-03   5.839283485200000E-03   5.897969259880000E-03
   5.957244836390000E-03   6.017116142360000E-03   6.077589164960000E-03
   6.138669951530000E-03   6.200364610220000E-03   6.262679310540000E-03
   6.325620284000000E-03   6.389193824770000E-03   6.453406290240000E-03
   6.518264101720000E-03   6.583773745040000E-03   6.649941771220000E-03
   6.716774797120000E-03   6.784279506100000E-03   6.852462648680000E-03
   6.921331043240000E-03   6.990891576670000E-03   7.061151205080000E-03
   7.132116954500000E-03   7.203795921560000E-03   7.276195274210000E-03
   7.349322252450000E-03   7.423184169040000E-03   7.497788410240000E-03
   7.573142436520000E-03   7.649253783360000E-03   7.726130061950000E-03
   7.803778959990000E-03   7.882208242430000E-03   7.961425752260000E-03
   8.041439411290000E-03   8.122257220970000E-03   8.203887263150000E-03
   8.286337700879999E-03   8.369616779290000E-03   8.453732826350001E-03
   8.538694253740001E-03   8.624509557669999E-03   8.711187319749999E-03
   8.798736207810000E-03   8.887164976830000E-03   8.976482469750000E-03
   9.066697618400000E-03   9.157819444370000E-03   9.249857059910001E-03
   9.342819668870000E-03   9.436716567580000E-03   9.531557145810001E-03
   9.627350887689999E-03   9.724107372690000E-03   9.821836276530001E-03
   9.920547372189999E-03   1.002025053080000E-02   1.012095572290000E-02
   1.022267301900000E-02   1.032541259090000E-02   1.042918471260000E-02
   1.053399976150000E-02   1.063986821920000E-02   1.074680067250000E-02
   1.085480781490000E-02   1.096390044710000E-02   1.107408947850000E-02
   1.118538592810000E-02   1.129780092560000E-02   1.141134571250000E-02
   1.152603164360000E-02   1.164187018740000E-02   1.175887292800000E-02
   1.187705156570000E-02   1.199641791840000E-02   1.211698392280000E-02
   1.223876163580000E-02   1.236176323520000E-02   1.248600102110000E-02
   1.261148741760000E-02   1.273823497330000E-02   1.286625636320000E-02
   1.299556438940000E-02   1.312617198280000E-02   1.325809220440000E-02
   1.339133824630000E-02   1.352592343320000E-02   1.366186122360000E-02
   1.379916521160000E-02   1.393784912760000E-02   1.407792684020000E-02
   1.421941235710000E-02   1.436231982710000E-02   1.450666354110000E-02
   1.465245793350000E-02   1.479971758390000E-02   1.494845721850000E-02
   1.509869171120000E-02   1.525043608560000E-02   1.540370551640000E-02
   1.555851533050000E-02   1.571488100920000E-02   1.587281818900000E-02
   1.603234266390000E-02   1.619347038650000E-02   1.635621746950000E-02
   1.652060018790000E-02   1.668663498020000E-02   1.685433844980000E-02
   1.702372736730000E-02   1.719481867170000E-02   1.736762947240000E-02
   1.754217705040000E-02   1.771847886080000E-02   1.789655253380000E-02
   1.807641587700000E-02   1.825808687690000E-02   1.844158370060000E-02
   1.862692469810000E-02   1.881412840360000E-02   1.900321353760000E-02
   1.919419900880000E-02   1.938710391590000E-02   1.958194754950000E-02
   1.977874939420000E-02   1.997752913030000E-02   2.017830663600000E-02
   2.038110198920000E-02   2.058593546950000E-02   2.079282756060000E-02
   2.100179895170000E-02   2.121287054030000E-02   2.142606343350000E-02
   2.164139895100000E-02   2.185889862640000E-02   2.207858420980000E-02
   2.230047767010000E-02   2.252460119680000E-02   2.275097720230000E-02
   2.297962832450000E-02   2.321057742870000E-02   2.344384761000000E-02
   2.367946219560000E-02   2.391744474710000E-02   2.415781906300000E-02
   2.440060918100000E-02   2.464583938020000E-02   2.489353418390000E-02
   2.514371836180000E-02   2.539641693240000E-02   2.565165516600000E-02
   2.590945858640000E-02   2.616985297420000E-02   2.643286436920000E-02
   2.669851907260000E-02   2.696684365020000E-02   2.723786493460000E-02
   2.751161002820000E-02   2.778810630570000E-02   2.806738141710000E-02
   2.834946328990000E-02   2.863438013270000E-02   2.892216043740000E-02
   2.921283298230000E-02   2.950642683470000E-02   2.980297135450000E-02
   3.010249619620000E-02   3.040503131260000E-02   3.071060695750000E-02
   3.101925368870000E-02   3.133100237110000E-02   3.164588417980000E-02
   3.196393060340000E-02   3.228517344660000E-02   3.260964483410000E-02
   3.293737721320000E-02   3.326840335750000E-02   3.360275636990000E-02
   3.394046968590000E-02   3.428157707710000E-02   3.462611265470000E-02
   3.497411087230000E-02   3.532560653020000E-02   3.568063477820000E-02
   3.603923111940000E-02   3.640143141370000E-02   3.676727188150000E-02
   3.713678910720000E-02   3.751002004270000E-02   3.788700201140000E-02
   3.826777271200000E-02   3.865237022160000E-02   3.904083300060000E-02
   3.943319989530000E-02   3.982951014290000E-02   4.022980337480000E-02
   4.063411962040000E-02   4.104249931190000E-02   4.145498328760000E-02
   4.187161279610000E-02   4.229242950080000E-02   4.271747548370000E-02
   4.314679324970000E-02   4.358042573100000E-02   4.401841629120000E-02
   4.446080872970000E-02   4.490764728610000E-02   4.535897664470000E-02
   4.581484193880000E-02   4.627528875520000E-02   4.674036313900000E-02
   4.721011159820000E-02   4.768458110780000E-02   4.816381911520000E-02
   4.864787354480000E-02   4.913679280220000E-02   4.963062577980000E-02
   5.012942186140000E-02   5.063323092690000E-02   5.114210335780000E-02
   5.165609004160000E-02   5.217524237740000E-02   5.269961228090000E-02
   5.322925218960000E-02   5.376421506790000E-02   5.430455441250000E-02
   5.485032425780000E-02   5.540157918120000E-02   5.595837430870000E-02
   5.652076532020000E-02   5.708880845540000E-02   5.766256051900000E-02
   5.824207888670000E-02   5.882742151090000E-02   5.941864692620000E-02
   6.001581425570000E-02   6.061898321670000E-02   6.122821412650000E-02
   6.184356790870000E-02   6.246510609930000E-02   6.309289085250000E-02
   6.372698494740001E-02   6.436745179389999E-02   6.501435543920001E-02
   6.566776057420000E-02   6.632773254010001E-02   6.699433733439999E-02
   6.766764161830000E-02   6.834771272280001E-02   6.903461865540000E-02
   6.972842810750000E-02   7.042921046050001E-02   7.113703579330000E-02
   7.185197488889999E-02   7.257409924180000E-02   7.330348106520000E-02
   7.404019329769999E-02   7.478430961130000E-02   7.553590441820000E-02
   7.629505287839999E-02   7.706183090760001E-02   7.783631518400000E-02
   7.861858315680000E-02   7.940871305350000E-02   8.020678388760000E-02
   8.101287546690000E-02   8.182706840140000E-02   8.264944411080000E-02
   8.348008483350000E-02   8.431907363430000E-02   8.516649441269999E-02
   8.602243191150000E-02   8.688697172520000E-02   8.776020030850000E-02
   8.864220498490000E-02   8.953307395570000E-02   9.043289630860001E-02
   9.134176202640000E-02   9.225976199650000E-02   9.318698801970000E-02
   9.412353281940000E-02   9.506949005080000E-02   9.602495431039999E-02
   9.699002114539999E-02   9.796478706349999E-02   9.894934954180000E-02
   9.994380703760000E-02   1.009482589970000E-01   1.019628058670000E-01
   1.029875491020000E-01   1.040225911790000E-01   1.050680356000000E-01
   1.061239869130000E-01   1.071905507130000E-01   1.082678336580000E-01
   1.093559434760000E-01   1.104549889800000E-01   1.115650800740000E-01
   1.126863277700000E-01   1.138188441920000E-01   1.149627425930000E-01
   1.161181373650000E-01   1.172851440470000E-01   1.184638793410000E-01
   1.196544611220000E-01   1.208570084490000E-01   1.220716415770000E-01
   1.232984819710000E-01   1.245376523160000E-01   1.257892765300000E-01
   1.270534797760000E-01   1.283303884770000E-01   1.296201303230000E-01
   1.309228342900000E-01   1.322386306500000E-01   1.335676509830000E-01
   1.349100281920000E-01   1.362658965170000E-01   1.376353915450000E-01
   1.390186502270000E-01   1.404158108890000E-01   1.418270132500000E-01
   1.432523984300000E-01   1.446921089700000E-01   1.461462888400000E-01
   1.476150834620000E-01   1.490986397150000E-01   1.505971059560000E-01
   1.521106320330000E-01   1.536393693010000E-01   1.551834706330000E-01
   1.567430904410000E-01   1.583183846900000E-01   1.599095109080000E-01
   1.615166282110000E-01   1.631398973120000E-01   1.647794805380000E-01
   1.664355418490000E-01   1.681082468530000E-01   1.697977628220000E-01
   1.715042587090000E-01   1.732279051650000E-01   1.749688745560000E-01
   1.767273409790000E-01   1.785034802850000E-01   1.802974700870000E-01
   1.821094897860000E-01   1.839397205860000E-01   1.857883455110000E-01
   1.876555494260000E-01   1.895415190520000E-01   1.914464429880000E-01
   1.933705117270000E-01   1.953139176790000E-01   1.972768551860000E-01
   1.992595205420000E-01   2.012621120170000E-01   2.032848298700000E-01
   2.053278763760000E-01   2.073914558410000E-01   2.094757746240000E-01
   2.115810411590000E-01   2.137074659740000E-01   2.158552617150000E-01
   2.180246431610000E-01   2.202158272530000E-01   2.224290331110000E-01
   2.246644820590000E-01   2.269223976410000E-01   2.292030056530000E-01
   2.315065341560000E-01   2.338332135050000E-01   2.361832763710000E-01
   2.385569577610000E-01   2.409544950450000E-01   2.433761279800000E-01
   2.458220987300000E-01   2.482926518960000E-01   2.507880345330000E-01
   2.533084961830000E-01   2.558542888930000E-01   2.584256672460000E-01
   2.610228883810000E-01   2.636462120220000E-01   2.662959005030000E-01
   2.689722187970000E-01   2.716754345370000E-01   2.744058180470000E-01
   2.771636423670000E-01   2.799491832830000E-01   2.827627193500000E-01
   2.856045319240000E-01   2.884749051900000E-01   2.913741261870000E-01
   2.943024848390000E-01   2.972602739850000E-01   3.002477894060000E-01
   3.032653298560000E-01   3.063131970920000E-01   3.093916959030000E-01
   3.125011341410000E-01   3.156418227530000E-01   3.188140758110000E-01
   3.220182105420000E-01   3.252545473620000E-01   3.285234099080000E-01
   3.318251250680000E-01   3.351600230180000E-01   3.385284372490000E-01
   3.419307046060000E-01   3.453671653190000E-01   3.488381630360000E-01
   3.523440448590000E-01   3.558851613810000E-01   3.594618667160000E-01
   3.630745185370000E-01   3.667234781120000E-01   3.704091103410000E-01
   3.741317837890000E-01   3.778918707280000E-01   3.816897471680000E-01
   3.855257929020000E-01   3.894003915360000E-01   3.933139305330000E-01
   3.972668012520000E-01   4.012593989810000E-01   4.052921229850000E-01
   4.093653765390000E-01   4.134795669720000E-01   4.176351057060000E-01
   4.218324082980000E-01   4.260718944830000E-01   4.303539882130000E-01
   4.346791176990000E-01   4.390477154600000E-01   4.434602183590000E-01
   4.479170676480000E-01   4.524187090180000E-01   4.569655926360000E-01
   4.615581731930000E-01   4.661969099530000E-01   4.708822667920000E-01
   4.756147122500000E-01   4.803947195760000E-01   4.852227667740000E-01
   4.900993366530000E-01   4.950249168750000E-01   5.000000000000000E-01
   5.050250835420000E-01   5.101006700130000E-01   5.152272669770001E-01
   5.204053870960000E-01   5.256355481880000E-01   5.309182732730000E-01
   5.362540906270000E-01   5.416435338370000E-01   5.470871418530000E-01
   5.525854590380000E-01   5.581390352290000E-01   5.637484257900000E-01
   5.694141916620000E-01   5.751368994290000E-01   5.809171213640000E-01
   5.867554354960000E-01   5.926524256600000E-01   5.986086815610000E-01
   6.046247988290000E-01   6.107013790800000E-01   6.168390299780000E-01
   6.230383652940000E-01   6.293000049650000E-01   6.356245751610000E-01
   6.420127083440000E-01   6.484650433330000E-01   6.549822253670000E-01
   6.615649061690000E-01   6.682137440130000E-01   6.749294037880000E-01
   6.817125570660000E-01   6.885638821680000E-01   6.954840642320000E-01
   7.024737952820000E-01   7.095337742970000E-01   7.166647072800000E-01
   7.238673073320000E-01   7.311422947170000E-01   7.384903969410000E-01
   7.459123488210000E-01   7.534088925560000E-01   7.609807778090000E-01
   7.686287617740000E-01   7.763536092560001E-01   7.841560927450000E-01
   7.920369924970000E-01   7.999970966090000E-01   8.080372010960000E-01
   8.161581099780000E-01   8.243606353500000E-01   8.326455974730000E-01
   8.410138248490000E-01   8.494661543090000E-01   8.580034310919999E-01
   8.666265089340000E-01   8.753362501480000E-01   8.841335257170000E-01
   8.930192153750000E-01   9.019942076990000E-01   9.110594001950000E-01
   9.202156993910000E-01   9.294640209230000E-01   9.388052896320001E-01
   9.482404396520000E-01   9.577704145070000E-01   9.673961672010000E-01
   9.771186603180000E-01   9.869388661150000E-01   9.968577666220000E-01
   1.006876353740000E+00   1.016995629320000E+00   1.027216605320000E+00
   1.037540303840000E+00   1.047967757250000E+00   1.058500008310000E+00
   1.069138110250000E+00   1.079883126890000E+00   1.090736132750000E+00
   1.101698213130000E+00   1.112770464250000E+00   1.123953993340000E+00
   1.135249918770000E+00   1.146659370130000E+00   1.158183488390000E+00
   1.169823425960000E+00   1.181580346850000E+00   1.193455426760000E+00
   1.205449853210000E+00   1.217564825640000E+00   1.229801555580000E+00
   1.242161266690000E+00   1.254645194970000E+00   1.267254588810000E+00
   1.279990709160000E+00   1.292854829660000E+00   1.305848236710000E+00
   1.318972229680000E+00   1.332228120960000E+00   1.345617236170000E+00
   1.359140914230000E+00   1.372800507510000E+00   1.386597381980000E+00
   1.400532917350000E+00   1.414608507180000E+00   1.428825559030000E+00
   1.443185494630000E+00   1.457689749990000E+00   1.472339775530000E+00
   1.487137036280000E+00   1.502083011970000E+00   1.517179197220000E+00
   1.532427101650000E+00   1.547828250060000E+00   1.563384182590000E+00
   1.579096454840000E+00   1.594966638060000E+00   1.610996319260000E+00
   1.627187101440000E+00   1.643540603690000E+00   1.660058461370000E+00
   1.676742326270000E+00   1.693593866810000E+00   1.710614768140000E+00
   1.727806732380000E+00   1.745171478730000E+00   1.762710743680000E+00
   1.780426281180000E+00   1.798319862780000E+00   1.816393277880000E+00
   1.834648333810000E+00   1.853086856110000E+00   1.871710688630000E+00
   1.890521693780000E+00   1.909521752680000E+00   1.928712765350000E+00
   1.948096650900000E+00   1.967675347740000E+00   1.987450813750000E+00
   2.007425026500000E+00   2.027599983420000E+00   2.047977702040000E+00
   2.068560220130000E+00   2.089349595960000E+00   2.110347908500000E+00
   2.131557257580000E+00   2.152979764170000E+00   2.174617570530000E+00
   2.196472840460000E+00   2.218547759500000E+00   2.240844535170000E+00
   2.263365397160000E+00   2.286112597570000E+00   2.309088411150000E+00
   2.332295135490000E+00   2.355735091300000E+00   2.379410622570000E+00
   2.403324096890000E+00   2.427477905620000E+00   2.451874464160000E+00
   2.476516212200000E+00   2.501405613920000E+00   2.526545158280000E+00
   2.551937359270000E+00   2.577584756120000E+00   2.603489913590000E+00
   2.629655422220000E+00   2.656083898590000E+00   2.682777985560000E+00
   2.709740352570000E+00   2.736973695860000E+00   2.764480738810000E+00
   2.792264232140000E+00   2.820326954210000E+00   2.848671711340000E+00
   2.877301338000000E+00   2.906218697200000E+00   2.935426680690000E+00
   2.964928209300000E+00   2.994726233190000E+00   3.024823732210000E+00
   3.055223716120000E+00   3.085929224940000E+00   3.116943329260000E+00
   3.148269130510000E+00   3.179909761300000E+00   3.211868385710000E+00
   3.244148199640000E+00   3.276752431100000E+00   3.309684340520000E+00
   3.342947221140000E+00   3.376544399270000E+00   3.410479234650000E+00
   3.444755120790000E+00   3.479375485320000E+00   3.514343790290000E+00
   3.549663532580000E+00   3.585338244170000E+00   3.621371492580000E+00
   3.657766881150000E+00   3.694528049470000E+00   3.731658673660000E+00
   3.769162466830000E+00   3.807043179390000E+00   3.845304599440000E+00
   3.883950553150000E+00   3.922984905160000E+00   3.962411558920000E+00
   4.002234457150000E+00   4.042457582150000E+00   4.083084956280000E+00
   4.124120642310000E+00   4.165568743840000E+00   4.207433405720000E+00
   4.249718814440000E+00   4.292429198590000E+00   4.335568829230000E+00
   4.379142020370000E+00   4.423153129360000E+00   4.467606557350000E+00
   4.512506749720000E+00   4.557858196520000E+00   4.603665432940000E+00
   4.649933039740000E+00   4.696665643720000E+00   4.743867918180000E+00
   4.791544583380000E+00   4.839700407040000E+00   4.888340204760000E+00
   4.937468840590000E+00   4.987091227410000E+00   5.037212327510000E+00
   5.087837153040000E+00   5.138970766520000E+00   5.190618281370000E+00
   5.242784862360000E+00   5.295475726220000E+00   5.348696142060000E+00
   5.402451431970000E+00   5.456746971520000E+00   5.511588190320000E+00
   5.566980572530000E+00   5.622929657440000E+00   5.679441040000000E+00
   5.736520371400000E+00   5.794173359610000E+00   5.852405769990000E+00
   5.911223425820000E+00   5.970632208920000E+00   6.030638060220000E+00
   6.091246980350000E+00   6.152465030260000E+00   6.214298331790000E+00
   6.276753068330000E+00   6.339835485420000E+00   6.403551891330000E+00
   6.467908657770000E+00   6.532912220470000E+00   6.598569079830000E+00
   6.664885801600000E+00   6.731869017500000E+00   6.799525425920000E+00
   6.867861792540000E+00   6.936884951060000E+00   7.006601803870000E+00
   7.077019322690000E+00   7.148144549340000E+00   7.219984596400000E+00
   7.292546647940000E+00   7.365837960220000E+00   7.439865862440000E+00
   7.514637757440000E+00   7.590161122480000E+00   7.666443509950000E+00
   7.743492548170000E+00   7.821315942090000E+00   7.899921474130000E+00
   7.979317004900000E+00   8.059510474010001E+00   8.140509900890001E+00
   8.222323385550000E+00   8.304959109389999E+00   8.388425336070000E+00
   8.472730412270000E+00   8.557882768570000E+00   8.643890920280001E+00
   8.730763468290000E+00   8.818509099920000E+00   8.907136589809999E+00
   8.996654800780000E+00   9.087072684720001E+00   9.178399283510000E+00
   9.270643729870001E+00   9.363815248340000E+00   9.457923156130001E+00
   9.552976864120000E+00   9.648985877750000E+00   9.745959798019999E+00
   9.843908322380001E+00   9.942841245780000E+00   1.004276846160000E+01
   1.014369996260000E+01   1.024564584210000E+01   1.034861629470000E+01
   1.045262161750000E+01   1.055767221130000E+01   1.066377858100000E+01
   1.077095133750000E+01   1.087920119810000E+01   1.098853898790000E+01
   1.109897564070000E+01   1.121052220040000E+01   1.132318982160000E+01
   1.143698977120000E+01   1.155193342940000E+01   1.166803229050000E+01
   1.178529796450000E+01   1.190374217820000E+01   1.202337677600000E+01
   1.214421372150000E+01   1.226626509860000E+01   1.238954311230000E+01
   1.251406009070000E+01   1.263982848550000E+01   1.276686087370000E+01
   1.289516995860000E+01   1.302476857130000E+01   1.315566967160000E+01
   1.328788634990000E+01   1.342143182790000E+01   1.355631946030000E+01
   1.369256273600000E+01   1.383017527930000E+01   1.396917085160000E+01
   1.410956335270000E+01   1.425136682190000E+01   1.439459543960000E+01
   1.453926352890000E+01   1.468538555660000E+01   1.483297613520000E+01
   1.498205002370000E+01   1.513262212970000E+01   1.528470751050000E+01
   1.543832137480000E+01   1.559347908420000E+01   1.575019615440000E+01
   1.590848825730000E+01   1.606837122240000E+01   1.622986103790000E+01
   1.639297385310000E+01   1.655772597930000E+01   1.672413389200000E+01
   1.689221423190000E+01   1.706198380740000E+01   1.723345959540000E+01
   1.740665874380000E+01   1.758159857260000E+01   1.775829657580000E+01
   1.793677042350000E+01   1.811703796320000E+01   1.829911722180000E+01
   1.848302640740000E+01   1.866878391100000E+01   1.885640830860000E+01
   1.904591836270000E+01   1.923733302450000E+01   1.943067143570000E+01
   1.962595293020000E+01   1.982319703630000E+01   2.002242347860000E+01
   2.022365218000000E+01   2.042690326350000E+01   2.063219705430000E+01
   2.083955408200000E+01   2.104899508250000E+01   2.126054100000000E+01
   2.147421298940000E+01   2.169003241790000E+01   2.190802086780000E+01
   2.212820013800000E+01   2.235059224670000E+01   2.257521943320000E+01
   2.280210416040000E+01   2.303126911710000E+01   2.326273721990000E+01
   2.349653161580000E+01   2.373267568440000E+01   2.397119304040000E+01
   2.421210753570000E+01   2.445544326190000E+01   2.470122455280000E+01
   2.494947598670000E+01   2.520022238900000E+01   2.545348883460000E+01