<UPF version="2.0.1">
  <PP_INFO>
    Generated by new atomic code, or converted to UPF format
    Author: 
    Generation date: 
    Pseudopotential type: NC
    Element: Li
    Functional:  SLA  PW   SCAN SCAN
    Suggested minimum cutoff for wavefunctions:   0. Ry
    Suggested minimum cutoff for charge density:   0. Ry
    The Pseudo was generated with a Non-Relativistic Calculation
    L component and cutoff radius for Local Potential:  0   0.0000
    Valence configuration: 
    nl pn  l   occ       Rcut    Rcut US       E pseu
    0S  1  0  1.00      0.000      0.000     0.000000
    0P  2  1  0.00      0.000      0.000     0.000000
    Generation configuration: not available.
  </PP_INFO>
    <!-- END OF HUMAN READABLE SECTION -->
  <PP_HEADER generated="Generated by new atomic code, or converted to UPF format" author="" date="" comment="" element="Li" pseudo_type="NC" relativistic="no" is_ultrasoft="false" is_paw="false" is_coulomb="false" has_so="false" has_wfc="false" has_gipaw="false" paw_as_gipaw="false" core_correction="false" functional=" SLA  PW   SCAN SCAN" z_valence="1.00000000000000" total_psenergy="0.000000000000000E+000" wfc_cutoff="0.000000000000000E+000" rho_cutoff="0.000000000000000E+000" l_max="0" l_max_rho="0" l_local="0" mesh_size="1321" number_of_wfc="2" number_of_proj="1"/>
  <PP_MESH mesh="1321" dx="9.999999999997261E-003" xmin="-7.99999999999556" rmax="60.4240806251000" zmesh="3.00000000000000">
    <PP_R>
   1.118208759680000E-04   1.129446944540000E-04   1.140798075050000E-04
   1.152263286310000E-04   1.163843724870000E-04   1.175540548760000E-04
   1.187354927690000E-04   1.199288043100000E-04   1.211341088320000E-04
   1.223515268650000E-04   1.235811801530000E-04   1.248231916620000E-04
   1.260776855940000E-04   1.273447874000000E-04   1.286246237910000E-04
   1.299173227510000E-04   1.312230135520000E-04   1.325418267630000E-04
   1.338738942680000E-04   1.352193492730000E-04   1.365783263270000E-04
   1.379509613260000E-04   1.393373915370000E-04   1.407377556030000E-04
   1.421521935620000E-04   1.435808468590000E-04   1.450238583600000E-04
   1.464813723670000E-04   1.479535346340000E-04   1.494404923780000E-04
   1.509423942960000E-04   1.524593905780000E-04   1.539916329270000E-04
   1.555392745680000E-04   1.571024702650000E-04   1.586813763410000E-04
   1.602761506860000E-04   1.618869527800000E-04   1.635139437040000E-04
   1.651572861590000E-04   1.668171444800000E-04   1.684936846550000E-04
   1.701870743380000E-04   1.718974828710000E-04   1.736250812950000E-04
   1.753700423720000E-04   1.771325405990000E-04   1.789127522280000E-04
   1.807108552820000E-04   1.825270295710000E-04   1.843614567160000E-04
   1.862143201600000E-04   1.880858051910000E-04   1.899760989590000E-04
   1.918853904960000E-04   1.938138707310000E-04   1.957617325150000E-04
   1.977291706360000E-04   1.997163818380000E-04   2.017235648450000E-04
   2.037509203770000E-04   2.057986511700000E-04   2.078669620000000E-04
   2.099560596990000E-04   2.120661531800000E-04   2.141974534520000E-04
   2.163501736480000E-04   2.185245290420000E-04   2.207207370710000E-04
   2.229390173570000E-04   2.251795917310000E-04   2.274426842520000E-04
   2.297285212310000E-04   2.320373312530000E-04   2.343693452020000E-04
   2.367247962810000E-04   2.391039200360000E-04   2.415069543830000E-04
   2.439341396270000E-04   2.463857184880000E-04   2.488619361260000E-04
   2.513630401650000E-04   2.538892807170000E-04   2.564409104090000E-04
   2.590181844060000E-04   2.616213604370000E-04   2.642506988220000E-04
   2.669064624970000E-04   2.695889170410000E-04   2.722983307020000E-04
   2.750349744220000E-04   2.777991218690000E-04   2.805910494600000E-04
   2.834110363890000E-04   2.862593646580000E-04   2.891363191020000E-04
   2.920421874190000E-04   2.949772601990000E-04   2.979418309500000E-04
   3.009361961320000E-04   3.039606551850000E-04   3.070155105560000E-04
   3.101010677350000E-04   3.132176352790000E-04   3.163655248470000E-04
   3.195450512310000E-04   3.227565323870000E-04   3.260002894650000E-04
   3.292766468440000E-04   3.325859321610000E-04   3.359284763500000E-04
   3.393046136650000E-04   3.427146817250000E-04   3.461590215380000E-04
   3.496379775430000E-04   3.531518976360000E-04   3.567011332130000E-04
   3.602860392010000E-04   3.639069740930000E-04   3.675642999860000E-04
   3.712583826150000E-04   3.749895913920000E-04   3.787582994400000E-04
   3.825648836340000E-04   3.864097246350000E-04   3.902932069300000E-04
   3.942157188720000E-04   3.981776527140000E-04   4.021794046530000E-04
   4.062213748670000E-04   4.103039675580000E-04   4.144275909870000E-04
   4.185926575210000E-04   4.227995836690000E-04   4.270487901280000E-04
   4.313407018220000E-04   4.356757479450000E-04   4.400543620070000E-04
   4.444769818710000E-04   4.489440498040000E-04   4.534560125160000E-04
   4.580133212070000E-04   4.626164316120000E-04   4.672658040460000E-04
   4.719619034490000E-04   4.767051994360000E-04   4.814961663400000E-04
   4.863352832620000E-04   4.912230341180000E-04   4.961599076860000E-04
   5.011463976590000E-04   5.061830026890000E-04   5.112702264410000E-04
   5.164085776420000E-04   5.215985701310000E-04   5.268407229120000E-04
   5.321355602040000E-04   5.374836114960001E-04   5.428854115960000E-04
   5.483415006900000E-04   5.538524243910000E-04   5.594187337960000E-04
   5.650409855410000E-04   5.707197418550000E-04   5.764555706190000E-04
   5.822490454200000E-04   5.881007456110000E-04   5.940112563670000E-04
   5.999811687440000E-04   6.060110797370000E-04   6.121015923430000E-04
   6.182533156190000E-04   6.244668647410000E-04   6.307428610700000E-04
   6.370819322110000E-04   6.434847120760000E-04   6.499518409480000E-04
   6.564839655470000E-04   6.630817390880000E-04   6.697458213570000E-04
   6.764768787650000E-04   6.832755844250000E-04   6.901426182130000E-04
   6.970786668380000E-04   7.040844239109999E-04   7.111605900130000E-04
   7.183078727660000E-04   7.255269869050000E-04   7.328186543480000E-04
   7.401836042660000E-04   7.476225731620000E-04   7.551363049380000E-04
   7.627255509740001E-04   7.703910702010000E-04   7.781336291760000E-04
   7.859540021630000E-04   7.938529712060000E-04   8.018313262070000E-04
   8.098898650080000E-04   8.180293934710000E-04   8.262507255550000E-04
   8.345546834010000E-04   8.429420974100000E-04   8.514138063310000E-04
   8.599706573420000E-04   8.686135061360000E-04   8.773432170040000E-04
   8.861606629250000E-04   8.950667256510000E-04   9.040622957960000E-04
   9.131482729230000E-04   9.223255656380000E-04   9.315950916790000E-04
   9.409577780050000E-04   9.504145608930000E-04   9.599663860290000E-04
   9.696142086040000E-04   9.793589934080000E-04   9.892017149270001E-04
   9.991433574419999E-04   1.009184915130000E-03   1.019327392140000E-03
   1.029571802750000E-03   1.039919171390000E-03   1.050370532810000E-03
   1.060926932170000E-03   1.071589425100000E-03   1.082359077870000E-03
   1.093236967450000E-03   1.104224181630000E-03   1.115321819160000E-03
   1.126530989790000E-03   1.137852814470000E-03   1.149288425370000E-03
   1.160838966070000E-03   1.172505591640000E-03   1.184289468740000E-03
   1.196191775780000E-03   1.208213702990000E-03   1.220356452580000E-03
   1.232621238830000E-03   1.245009288230000E-03   1.257521839600000E-03
   1.270160144200000E-03   1.282925465870000E-03   1.295819081160000E-03
   1.308842279440000E-03   1.321996363030000E-03   1.335282647360000E-03
   1.348702461070000E-03   1.362257146150000E-03   1.375948058090000E-03
   1.389776565970000E-03   1.403744052670000E-03   1.417851914940000E-03
   1.432101563580000E-03   1.446494423580000E-03   1.461031934220000E-03
   1.475715549280000E-03   1.490546737120000E-03   1.505526980870000E-03
   1.520657778580000E-03   1.535940643330000E-03   1.551377103430000E-03
   1.566968702530000E-03   1.582716999800000E-03   1.598623570100000E-03
   1.614690004080000E-03   1.630917908410000E-03   1.647308905890000E-03
   1.663864635640000E-03   1.680586753230000E-03   1.697476930900000E-03
   1.714536857680000E-03   1.731768239570000E-03   1.749172799730000E-03
   1.766752278620000E-03   1.784508434220000E-03   1.802443042150000E-03
   1.820557895880000E-03   1.838854806920000E-03   1.857335604970000E-03
   1.876002138130000E-03   1.894856273070000E-03   1.913899895220000E-03
   1.933134908950000E-03   1.952563237780000E-03   1.972186824560000E-03
   1.992007631670000E-03   2.012027641200000E-03   2.032248855170000E-03
   2.052673295720000E-03   2.073303005310000E-03   2.094140046930000E-03
   2.115186504300000E-03   2.136444482090000E-03   2.157916106100000E-03
   2.179603523520000E-03   2.201508903100000E-03   2.223634435420000E-03
   2.245982333030000E-03   2.268554830740000E-03   2.291354185830000E-03
   2.314382678250000E-03   2.337642610860000E-03   2.361136309680000E-03
   2.384866124100000E-03   2.408834427130000E-03   2.433043615600000E-03
   2.457496110460000E-03   2.482194356970000E-03   2.507140825000000E-03
   2.532338009190000E-03   2.557788429300000E-03   2.583494630380000E-03
   2.609459183080000E-03   2.635684683860000E-03   2.662173755320000E-03
   2.688929046370000E-03   2.715953232560000E-03   2.743249016340000E-03
   2.770819127310000E-03   2.798666322500000E-03   2.826793386650000E-03
   2.855203132500000E-03   2.883898401040000E-03   2.912882061820000E-03
   2.942157013240000E-03   2.971726182810000E-03   3.001592527480000E-03
   3.031759033900000E-03   3.062228718750000E-03   3.093004629020000E-03
   3.124089842340000E-03   3.155487467240000E-03   3.187200643510000E-03
   3.219232542510000E-03   3.251586367450000E-03   3.284265353730000E-03
   3.317272769280000E-03   3.350611914880000E-03   3.384286124460000E-03
   3.418298765470000E-03   3.452653239200000E-03   3.487352981140000E-03
   3.522401461280000E-03   3.557802184510000E-03   3.593558690910000E-03
   3.629674556180000E-03   3.666153391940000E-03   3.702998846080000E-03
   3.740214603200000E-03   3.777804384890000E-03   3.815771950170000E-03
   3.854121095820000E-03   3.892855656800000E-03   3.931979506580000E-03
   3.971496557600000E-03   4.011410761570000E-03   4.051726109970000E-03
   4.092446634360000E-03   4.133576406810000E-03   4.175119540360000E-03
   4.217080189340000E-03   4.259462549850000E-03   4.302270860160000E-03
   4.345509401150000E-03   4.389182496690000E-03   4.433294514150000E-03
   4.477849864750000E-03   4.522853004070000E-03   4.568308432450000E-03
   4.614220695490000E-03   4.660594384450000E-03   4.707434136720000E-03
   4.754744636330000E-03   4.802530614370000E-03   4.850796849470000E-03
   4.899548168300000E-03   4.948789446030000E-03   4.998525606830000E-03
   5.048761624350000E-03   5.099502522240000E-03   5.150753374640000E-03
   5.202519306660000E-03   5.254805494950000E-03   5.307617168170000E-03
   5.360959607530000E-03   5.414838147320000E-03   5.469258175430000E-03
   5.524225133920000E-03   5.579744519530000E-03   5.635821884240000E-03
   5.692462835830000E-03   5.749673038450000E-03   5.807458213160000E-03
   5.865824138540000E-03   5.924776651220000E-03   5.984321646500000E-03
   6.044465078930000E-03   6.105212962910000E-03   6.166571373270000E-03
   6.228546445910000E-03   6.291144378380000E-03   6.354371430540000E-03
   6.418233925130000E-03   6.482738248460000E-03   6.547890851020000E-03
   6.613698248120000E-03   6.680167020560000E-03   6.747303815270000E-03
   6.815115345980000E-03   6.883608393900000E-03   6.952789808400000E-03
   7.022666507680000E-03   7.093245479460000E-03   7.164533781700000E-03
   7.236538543280000E-03   7.309266964750000E-03   7.382726319010000E-03
   7.456923952060000E-03   7.531867283710000E-03   7.607563808360000E-03
   7.684021095740000E-03   7.761246791630000E-03   7.839248618670001E-03
   7.918034377100000E-03   7.997611945570001E-03   8.077989281900001E-03
   8.159174423880000E-03   8.241175490109999E-03   8.324000680760000E-03
   8.407658278410000E-03   8.492156648890000E-03   8.577504242120001E-03
   8.663709592920000E-03   8.750781321900001E-03   8.838728136300000E-03
   8.927558830880001E-03   9.017282288780000E-03   9.107907482430001E-03
   9.199443474420000E-03   9.291899418419999E-03   9.385284560100000E-03
   9.479608238059999E-03   9.574879884750000E-03   9.671109027400000E-03
   9.768305289010000E-03   9.866478389300000E-03   9.965638145640001E-03
   1.006579447410000E-02   1.016695739040000E-02   1.026913701090000E-02
   1.037234355370000E-02   1.047658733950000E-02   1.058187879270000E-02
   1.068822844260000E-02   1.079564692430000E-02   1.090414497970000E-02
   1.101373345860000E-02   1.112442332010000E-02   1.123622563320000E-02
   1.134915157820000E-02   1.146321244780000E-02   1.157841964820000E-02
   1.169478470030000E-02   1.181231924050000E-02   1.193103502260000E-02
   1.205094391800000E-02   1.217205791790000E-02   1.229438913370000E-02
   1.241794979870000E-02   1.254275226910000E-02   1.266880902510000E-02
   1.279613267250000E-02   1.292473594390000E-02   1.305463169970000E-02
   1.318583292950000E-02   1.331835275360000E-02   1.345220442400000E-02
   1.358740132610000E-02   1.372395697970000E-02   1.386188504040000E-02
   1.400119930110000E-02   1.414191369350000E-02   1.428404228900000E-02
   1.442759930070000E-02   1.457259908430000E-02   1.471905613990000E-02
   1.486698511340000E-02   1.501640079790000E-02   1.516731813490000E-02
   1.531975221630000E-02   1.547371828580000E-02   1.562923174000000E-02
   1.578630813040000E-02   1.594496316470000E-02   1.610521270870000E-02
   1.626707278730000E-02   1.643055958680000E-02   1.659568945600000E-02
   1.676247890790000E-02   1.693094462160000E-02   1.710110344400000E-02
   1.727297239090000E-02   1.744656864950000E-02   1.762190957950000E-02
   1.779901271510000E-02   1.797789576680000E-02   1.815857662310000E-02
   1.834107335210000E-02   1.852540420380000E-02   1.871158761140000E-02
   1.889964219330000E-02   1.908958675520000E-02   1.928144029160000E-02
   1.947522198820000E-02   1.967095122310000E-02   1.986864756960000E-02
   2.006833079750000E-02   2.027002087510000E-02   2.047373797170000E-02
   2.067950245910000E-02   2.088733491410000E-02   2.109725611990000E-02
   2.130928706890000E-02   2.152344896440000E-02   2.173976322270000E-02
   2.195825147550000E-02   2.217893557170000E-02   2.240183757990000E-02
   2.262697979060000E-02   2.285438471810000E-02   2.308407510310000E-02
   2.331607391490000E-02   2.355040435350000E-02   2.378708985210000E-02
   2.402615407960000E-02   2.426762094250000E-02   2.451151458770000E-02
   2.475785940480000E-02   2.500668002840000E-02   2.525800134090000E-02
   2.551184847460000E-02   2.576824681440000E-02   2.602722200040000E-02
   2.628879993020000E-02   2.655300676200000E-02   2.681986891650000E-02
   2.708941308030000E-02   2.736166620800000E-02   2.763665552510000E-02
   2.791440853070000E-02   2.819495300050000E-02   2.847831698910000E-02
   2.876452883310000E-02   2.905361715400000E-02   2.934561086080000E-02
   2.964053915310000E-02   2.993843152410000E-02   3.023931776310000E-02
   3.054322795920000E-02   3.085019250340000E-02   3.116024209270000E-02
   3.147340773210000E-02   3.178972073850000E-02   3.210921274350000E-02
   3.243191569650000E-02   3.275786186810000E-02   3.308708385320000E-02
   3.341961457430000E-02   3.375548728460000E-02   3.409473557180000E-02
   3.443739336100000E-02   3.478349491830000E-02   3.513307485400000E-02
   3.548616812640000E-02   3.584281004530000E-02   3.620303627500000E-02
   3.656688283850000E-02   3.693438612080000E-02   3.730558287240000E-02
   3.768051021350000E-02   3.805920563690000E-02   3.844170701270000E-02
   3.882805259120000E-02   3.921828100730000E-02   3.961243128410000E-02
   4.001054283720000E-02   4.041265547780000E-02   4.081880941770000E-02
   4.122904527250000E-02   4.164340406620000E-02   4.206192723500000E-02
   4.248465663160000E-02   4.291163452930000E-02   4.334290362610000E-02
   4.377850704950000E-02   4.421848836000000E-02   4.466289155630000E-02
   4.511176107890000E-02   4.556514181520000E-02   4.602307910360000E-02
   4.648561873840000E-02   4.695280697370000E-02   4.742469052880000E-02
   4.790131659260000E-02   4.838273282790000E-02   4.886898737680000E-02
   4.936012886520000E-02   4.985620640750000E-02   5.035726961210000E-02
   5.086336858560000E-02   5.137455393840000E-02   5.189087678930000E-02
   5.241238877120000E-02   5.293914203560000E-02   5.347118925840000E-02
   5.400858364460000E-02   5.455137893420000E-02   5.509962940720000E-02
   5.565338988900000E-02   5.621271575620000E-02   5.677766294180000E-02
   5.734828794100000E-02   5.792464781680000E-02   5.850680020570000E-02
   5.909480332330000E-02   5.968871597050000E-02   6.028859753900000E-02
   6.089450801760000E-02   6.150650799770000E-02   6.212465867980000E-02
   6.274902187960001E-02   6.337966003379999E-02   6.401663620690000E-02
   6.466001409699999E-02   6.530985804230000E-02   6.596623302790000E-02
   6.662920469170000E-02   6.729883933160000E-02   6.797520391140000E-02
   6.865836606830000E-02   6.934839411900000E-02   7.004535706690000E-02
   7.074932460890000E-02   7.146036714230000E-02   7.217855577200000E-02
   7.290396231740000E-02   7.363665931980000E-02   7.437672004949999E-02
   7.512421851310000E-02   7.587922946130000E-02   7.664182839560001E-02
   7.741209157660001E-02   7.819009603130000E-02   7.897591956070001E-02
   7.976964074789999E-02   8.057133896570000E-02   8.138109438450000E-02
   8.219898798050000E-02   8.302510154390000E-02   8.385951768659999E-02
   8.470231985090000E-02   8.555359231790000E-02   8.641342021530000E-02
   8.728188952679999E-02   8.815908709990000E-02   8.904510065530000E-02
   8.994001879490000E-02   9.084393101130001E-02   9.175692769660000E-02
   9.267910015109999E-02   9.361054059280000E-02   9.455134216659999E-02
   9.550159895340000E-02   9.646140597970000E-02   9.743085922700000E-02
   9.841005564130000E-02   9.939909314330000E-02   1.003980706370000E-01
   1.014070880220000E-01   1.024262462000000E-01   1.034556470880000E-01
   1.044953936280000E-01   1.055455897930000E-01   1.066063406050000E-01
   1.076777521410000E-01   1.087599315410000E-01   1.098529870250000E-01
   1.109570278990000E-01   1.120721645690000E-01   1.131985085480000E-01
   1.143361724730000E-01   1.154852701100000E-01   1.166459163700000E-01
   1.178182273200000E-01   1.190023201900000E-01   1.201983133910000E-01
   1.214063265240000E-01   1.226264803900000E-01   1.238588970070000E-01
   1.251036996170000E-01   1.263610127010000E-01   1.276309619920000E-01
   1.289136744850000E-01   1.302092784530000E-01   1.315179034570000E-01
   1.328396803620000E-01   1.341747413450000E-01   1.355232199140000E-01
   1.368852509170000E-01   1.382609705610000E-01   1.396505164160000E-01
   1.410540274390000E-01   1.424716439830000E-01   1.439035078100000E-01
   1.453497621070000E-01   1.468105515020000E-01   1.482860220740000E-01
   1.497763213720000E-01   1.512815984270000E-01   1.528020037680000E-01
   1.543376894370000E-01   1.558888090030000E-01   1.574555175800000E-01
   1.590379718400000E-01   1.606363300300000E-01   1.622507519870000E-01
   1.638813991540000E-01   1.655284345970000E-01   1.671920230220000E-01
   1.688723307890000E-01   1.705695259290000E-01   1.722837781640000E-01
   1.740152589200000E-01   1.757641413480000E-01   1.775306003360000E-01
   1.793148125320000E-01   1.811169563580000E-01   1.829372120310000E-01
   1.847757615780000E-01   1.866327888550000E-01   1.885084795670000E-01
   1.904030212830000E-01   1.923166034600000E-01   1.942494174580000E-01
   1.962016565590000E-01   1.981735159900000E-01   2.001651929370000E-01
   2.021768865710000E-01   2.042087980610000E-01   2.062611306020000E-01
   2.083340894280000E-01   2.104278818360000E-01   2.125427172070000E-01
   2.146788070280000E-01   2.168363649080000E-01   2.190156066050000E-01
   2.212167500450000E-01   2.234400153450000E-01   2.256856248330000E-01
   2.279538030710000E-01   2.302447768790000E-01   2.325587753570000E-01
   2.348960299060000E-01   2.372567742540000E-01   2.396412444770000E-01
   2.420496790250000E-01   2.444823187410000E-01   2.469394068940000E-01
   2.494211891930000E-01   2.519279138190000E-01   2.544598314460000E-01
   2.570171952680000E-01   2.596002610240000E-01   2.622092870220000E-01
   2.648445341680000E-01   2.675062659870000E-01   2.701947486570000E-01
   2.729102510260000E-01   2.756530446480000E-01   2.784234038040000E-01
   2.812216055320000E-01   2.840479296550000E-01   2.869026588080000E-01
   2.897860784660000E-01   2.926984769740000E-01   2.956401455720000E-01
   2.986113784320000E-01   3.016124726790000E-01   3.046437284240000E-01
   3.077054487960000E-01   3.107979399690000E-01   3.139215111950000E-01
   3.170764748340000E-01   3.202631463840000E-01   3.234818445160000E-01
   3.267328911020000E-01   3.300166112500000E-01   3.333333333330000E-01
   3.366833890280000E-01   3.400671133420000E-01   3.434848446510000E-01
   3.469369247310000E-01   3.504236987920000E-01   3.539455155150000E-01
   3.575027270850000E-01   3.610956892250000E-01   3.647247612350000E-01
   3.683903060250000E-01   3.720926901530000E-01   3.758322838600000E-01
   3.796094611080000E-01   3.834245996190000E-01   3.872780809090000E-01
   3.911702903310000E-01   3.951016171070000E-01   3.990724543740000E-01
   4.030831992190000E-01   4.071342527200000E-01   4.112260199860000E-01
   4.153589101960000E-01   4.195333366430000E-01   4.237497167740000E-01
   4.280084722290000E-01   4.323100288890000E-01   4.366548169110000E-01
   4.410432707790000E-01   4.454758293420000E-01   4.499529358590000E-01
   4.544750380440000E-01   4.590425881120000E-01   4.636560428210000E-01
   4.683158635210000E-01   4.730225161980000E-01   4.777764715200000E-01
   4.825782048880000E-01   4.874281964780000E-01   4.923269312940000E-01
   4.972748992140000E-01   5.022725950380000E-01   5.073205185400000E-01
   5.124191745160001E-01   5.175690728370000E-01   5.227707284970000E-01
   5.280246616650000E-01   5.333313977390000E-01   5.386914673980000E-01
   5.441054066520000E-01   5.495737569000000E-01   5.550970649820000E-01
   5.606758832330000E-01   5.663107695400000E-01   5.720022873950000E-01
   5.777510059560000E-01   5.835575000990000E-01   5.894223504780000E-01
   5.953461435830000E-01   6.013294717990000E-01   6.073729334640000E-01
   6.134771329270000E-01   6.196426806150001E-01   6.258701930880000E-01
   6.321602931019999E-01   6.385136096710000E-01   6.449307781340000E-01
   6.514124402120000E-01   6.579592440770000E-01   6.645718444140000E-01
   6.712509024900000E-01   6.779970862160000E-01   6.848110702150000E-01
   6.916935358910000E-01   6.986451714980000E-01   7.056666722040000E-01
   7.127587401660000E-01   7.199220845950000E-01   7.271574218330000E-01
   7.344654754190000E-01   7.418469761640000E-01   7.493026622250000E-01
   7.568332791770001E-01   7.644395800879999E-01   7.721223255940000E-01
   7.798822839750000E-01   7.877202312350000E-01   7.956369511750000E-01
   8.036332354720001E-01   8.117098837630000E-01   8.198677037190000E-01
   8.281075111280000E-01   8.364301299790000E-01   8.448363925390000E-01
   8.533271394430000E-01   8.619032197720000E-01   8.705654911410000E-01
   8.793148197850000E-01   8.881520806430000E-01   8.970781574500000E-01
   9.060939428200000E-01   9.152003383390001E-01   9.243982546550000E-01
   9.336886115660000E-01   9.430723381170000E-01   9.525503726880000E-01
   9.621236630890000E-01   9.717931666590000E-01   9.815598503550000E-01
   9.914246908540000E-01   1.001388674650000E+00   1.011452798150000E+00
   1.021618067760000E+00   1.031885500040000E+00   1.042256121730000E+00
   1.052730969900000E+00   1.063311092040000E+00   1.073997546180000E+00
   1.084791400960000E+00   1.095693735790000E+00   1.106705640910000E+00
   1.117828217520000E+00   1.129062577870000E+00   1.140409845430000E+00
   1.151871154920000E+00   1.163447652490000E+00   1.175140495790000E+00
   1.186950854120000E+00   1.198879908520000E+00   1.210928851920000E+00
   1.223098889210000E+00   1.235391237400000E+00   1.247807125750000E+00
   1.260347795860000E+00   1.273014501790000E+00   1.285808510230000E+00
   1.298731100600000E+00   1.311783565160000E+00   1.324967209160000E+00
   1.338283351000000E+00   1.351733322280000E+00   1.365318468020000E+00
   1.379040146750000E+00   1.392899730640000E+00   1.406898605670000E+00
   1.421038171720000E+00   1.435319842780000E+00   1.449745047020000E+00
   1.464315226970000E+00   1.479031839670000E+00   1.493896356780000E+00
   1.508910264770000E+00   1.524075065050000E+00   1.539392274100000E+00
   1.554863423660000E+00   1.570490060860000E+00   1.586273748380000E+00
   1.602216064590000E+00   1.618318603750000E+00   1.634582976110000E+00
   1.651010808130000E+00   1.667603742610000E+00   1.684363438850000E+00
   1.701291572850000E+00   1.718389837410000E+00   1.735659942390000E+00
   1.753103614820000E+00   1.770722599060000E+00   1.788518657040000E+00
   1.806493568380000E+00   1.824649130580000E+00   1.842987159210000E+00
   1.861509488090000E+00   1.880217969480000E+00   1.899114474220000E+00
   1.918200892000000E+00   1.937479131470000E+00   1.956951120460000E+00
   1.976618806200000E+00   1.996484155460000E+00   2.016549154800000E+00
   2.036815810740000E+00   2.057286149960000E+00   2.077962219510000E+00
   2.098846087010000E+00   2.119939840870000E+00   2.141245590480000E+00
   2.162765466430000E+00   2.184501620730000E+00   2.206456227010000E+00
   2.228631480760000E+00   2.251029599510000E+00   2.273652823100000E+00
   2.296503413860000E+00   2.319583656880000E+00   2.342895860200000E+00
   2.366442355050000E+00   2.390225496120000E+00   2.414247661720000E+00
   2.438511254100000E+00   2.463018699640000E+00   2.487772449110000E+00
   2.512774977890000E+00   2.538028786260000E+00   2.563536399630000E+00
   2.589300368770000E+00   2.615323270110000E+00   2.641607705950000E+00
   2.668156304770000E+00   2.694971721440000E+00   2.722056637520000E+00
   2.749413761540000E+00   2.777045829230000E+00   2.804955603810000E+00
   2.833145876300000E+00   2.861619465730000E+00   2.890379219490000E+00
   2.919428013580000E+00   2.948768752910000E+00   2.978404371570000E+00
   3.008337833140000E+00   3.038572131010000E+00   3.069110288630000E+00
   3.099955359830000E+00   3.131110429150000E+00   3.162578612120000E+00
   3.194363055590000E+00   3.226466938020000E+00   3.258893469840000E+00
   3.291645893720000E+00   3.324727484940000E+00   3.358141551670000E+00
   3.391891435360000E+00   3.425980511010000E+00   3.460412187580000E+00
   3.495189908240000E+00   3.530317150810000E+00   3.565797428040000E+00
   3.601634287980000E+00   3.637831314350000E+00   3.674392126880000E+00
   3.711320381690000E+00   3.748619771630000E+00   3.786294026670000E+00
   3.824346914260000E+00   3.862782239740000E+00   3.901603846660000E+00
   3.940815617220000E+00   3.980421472620000E+00   4.020425373480000E+00
   4.060831320230000E+00   4.101643353500000E+00   4.142865554530000E+00
   4.184502045560000E+00   4.226556990280000E+00   4.269034594220000E+00
   4.311939105180000E+00   4.355274813640000E+00   4.399046053220000E+00
   4.443257201070000E+00   4.487912678330000E+00   4.533016950610000E+00
   4.578574528360000E+00   4.624589967380000E+00   4.671067869240000E+00
   4.718012881790000E+00   4.765429699560000E+00   4.813323064270000E+00
   4.861697765290000E+00   4.910558640150000E+00   4.959910574960000E+00
   5.009758504960000E+00   5.060107414980000E+00   5.110962339970000E+00
   5.162328365450000E+00   5.214210628060000E+00   5.266614316090000E+00
   5.319544669930000E+00   5.373006982680000E+00   5.427006600600000E+00
   5.481548923700000E+00   5.536639406260000E+00   5.592283557380000E+00
   5.648486941510000E+00   5.705255179050000E+00   5.762593946860000E+00
   5.820508978860000E+00   5.879006066610000E+00   5.938091059870000E+00
   5.997769867180000E+00   6.058048456480000E+00   6.118932855670000E+00
   6.180429153250000E+00   6.242543498890000E+00   6.305282104090000E+00
   6.368651242740000E+00   6.432657251830000E+00   6.497306532010000E+00
   6.562605548250000E+00   6.628560830520000E+00   6.695178974400000E+00
   6.762466641750000E+00   6.830430561400000E+00   6.899077529800000E+00
   6.968414411700000E+00   7.038448140850000E+00   7.109185720680000E+00
   7.180634225000000E+00   7.252800798730000E+00   7.325692658590000E+00
   7.399317093810000E+00   7.473681466920000E+00   7.548793214390000E+00
   7.624659847480000E+00   7.701288952910000E+00   7.778688193650000E+00
   7.856865309690000E+00   7.935828118810000E+00   8.015584517350000E+00
   8.096142481030000E+00   8.177510065700000E+00   8.259695408200001E+00
   8.342706727110000E+00   8.426552323650000E+00   8.511240582450000E+00
   8.596779972400000E+00   8.683179047510000E+00   8.770446447759999E+00
   8.858590899959999E+00   8.947621218629999E+00   9.037546306890000E+00
   9.128375157300001E+00   9.220116852840000E+00   9.312780567750000E+00
   9.406375568470001E+00   9.500911214589999E+00   9.596396959750001E+00
   9.692842352600000E+00   9.790257037760000E+00   9.888650756790000E+00
   9.988033349129999E+00   1.008841475310000E+01   1.018980500700000E+01
   1.029221424990000E+01   1.039565272280000E+01   1.050013076960000E+01
   1.060565883820000E+01   1.071224748160000E+01   1.081990735860000E+01
   1.092864923540000E+01   1.103848398620000E+01   1.114942259460000E+01
   1.126147615460000E+01   1.137465587160000E+01   1.148897306360000E+01
   1.160443916250000E+01   1.172106571500000E+01   1.183886438390000E+01
   1.195784694900000E+01   1.207802530880000E+01   1.219941148120000E+01
   1.232201760490000E+01   1.244585594070000E+01   1.257093887240000E+01
   1.269727890850000E+01   1.282488868300000E+01   1.295378095710000E+01
   1.308396862010000E+01   1.321546469090000E+01   1.334828231910000E+01