<UPF version="2.0.1">
  <PP_INFO>
    Generated by new atomic code, or converted to UPF format
    Author: 
    Generation date: 
    Pseudopotential type: NC
    Element: N
    Functional:  SLA  PW   SCAN SCAN
    Suggested minimum cutoff for wavefunctions:   0. Ry
    Suggested minimum cutoff for charge density:   0. Ry
    The Pseudo was generated with a Non-Relativistic Calculation
    L component and cutoff radius for Local Potential:  0   0.0000
    Valence configuration: 
    nl pn  l   occ       Rcut    Rcut US       E pseu
    0S  1  0  2.00      0.000      0.000     0.000000
    0P  2  1  3.00      0.000      0.000     0.000000
    Generation configuration: not available.
  </PP_INFO>
    <!-- END OF HUMAN READABLE SECTION -->
  <PP_HEADER generated="Generated by new atomic code, or converted to UPF format" author="" date="" comment="" element="N" pseudo_type="NC" relativistic="no" is_ultrasoft="false" is_paw="false" is_coulomb="false" has_so="false" has_wfc="false" has_gipaw="false" paw_as_gipaw="false" core_correction="false" functional=" SLA  PW   SCAN SCAN" z_valence="5.00000000000000" total_psenergy="0.000000000000000E+000" wfc_cutoff="0.000000000000000E+000" rho_cutoff="0.000000000000000E+000" l_max="0" l_max_rho="0" l_local="0" mesh_size="1405" number_of_wfc="2" number_of_proj="1"/>
  <PP_MESH mesh="1405" dx="9.999999999999728E-003" xmin="-8.00000000000004" rmax="59.9847192695000" zmesh="7.00000000000000">
    <PP_R>
   4.792323255750000E-05   4.840486905190000E-05   4.889134607360000E-05
   4.938271227060000E-05   4.987901678000000E-05   5.038030923260000E-05
   5.088663975810000E-05   5.139805899010000E-05   5.191461807070000E-05
   5.243636865640000E-05   5.296336292270000E-05   5.349565356940000E-05
   5.403329382610000E-05   5.457633745710000E-05   5.512483876740000E-05
   5.567885260750000E-05   5.623843437930000E-05   5.680364004140000E-05
   5.737452611480000E-05   5.795114968860000E-05   5.853356842570000E-05
   5.912184056840000E-05   5.971602494440000E-05   6.031618097270000E-05
   6.092236866940000E-05   6.153464865370000E-05   6.215308215410000E-05
   6.277773101450000E-05   6.340865770040000E-05   6.404592530490000E-05
   6.468959755530000E-05   6.533973881930000E-05   6.599641411170001E-05
   6.665968910040001E-05   6.732963011370001E-05   6.800630414600000E-05
   6.868977886550000E-05   6.938012262010000E-05   7.007740444469999E-05
   7.078169406819999E-05   7.149306192010000E-05   7.221157913770000E-05
   7.293731757350000E-05   7.367034980180000E-05   7.441074912640001E-05
   7.515858958800000E-05   7.591394597120000E-05   7.667689381220000E-05
   7.744750940650001E-05   7.822586981630000E-05   7.901205287830000E-05
   7.980613721140000E-05   8.060820222470000E-05   8.141832812540001E-05
   8.223659592680000E-05   8.306308745630000E-05   8.389788536370000E-05
   8.474107312960000E-05   8.559273507350000E-05   8.645295636220000E-05
   8.732182301850000E-05   8.819942192990000E-05   8.908584085710000E-05
   8.998116844250000E-05   9.088549421979999E-05   9.179890862220000E-05
   9.272150299200000E-05   9.365336958940000E-05   9.459460160180000E-05
   9.554529315310000E-05   9.650553931339999E-05   9.747543610810000E-05
   9.845508052750000E-05   9.944457053710001E-05   1.004440050870000E-04
   1.014534841200000E-04   1.024731085870000E-04   1.035029804500000E-04
   1.045432026970000E-04   1.055938793520000E-04   1.066551154820000E-04
   1.077270172130000E-04   1.088096917360000E-04   1.099032473180000E-04
   1.110077933170000E-04   1.121234401870000E-04   1.132502994950000E-04
   1.143884839270000E-04   1.155381073030000E-04   1.166992845860000E-04
   1.178721318950000E-04   1.190567665150000E-04   1.202533069110000E-04
   1.214618727380000E-04   1.226825848530000E-04   1.239155653300000E-04
   1.251609374650000E-04   1.264188257990000E-04   1.276893561210000E-04
   1.289726554850000E-04   1.302688522220000E-04   1.315780759530000E-04
   1.329004576010000E-04   1.342361294050000E-04   1.355852249340000E-04
   1.369478790990000E-04   1.383242281660000E-04   1.397144097710000E-04
   1.411185629330000E-04   1.425368280690000E-04   1.439693470070000E-04
   1.454162629990000E-04   1.468777207390000E-04   1.483538663740000E-04
   1.498448475180000E-04   1.513508132730000E-04   1.528719142340000E-04
   1.544083025150000E-04   1.559601317540000E-04   1.575275571370000E-04
   1.591107354060000E-04   1.607098248820000E-04   1.623249854740000E-04
   1.639563787000000E-04   1.656041677010000E-04   1.672685172560000E-04
   1.689495938020000E-04   1.706475654490000E-04   1.723626019940000E-04
   1.740948749430000E-04   1.758445575250000E-04   1.776118247090000E-04
   1.793968532230000E-04   1.811998215720000E-04   1.830209100550000E-04
   1.848603007810000E-04   1.867181776910000E-04   1.885947265740000E-04
   1.904901350880000E-04   1.924045927730000E-04   1.943382910780000E-04
   1.962914233740000E-04   1.982641849770000E-04   2.002567731620000E-04
   2.022693871920000E-04   2.043022283300000E-04   2.063554998600000E-04
   2.084294071120000E-04   2.105241574790000E-04   2.126399604370000E-04
   2.147770275680000E-04   2.169355725810000E-04   2.191158113320000E-04
   2.213179618470000E-04   2.235422443420000E-04   2.257888812480000E-04
   2.280580972300000E-04   2.303501192120000E-04   2.326651763980000E-04
   2.350035002960000E-04   2.373653247390000E-04   2.397508859130000E-04
   2.421604223750000E-04   2.445941750810000E-04   2.470523874080000E-04
   2.495353051800000E-04   2.520431766910000E-04   2.545762527290000E-04
   2.571347866040000E-04   2.597190341730000E-04   2.623292538610000E-04
   2.649657066940000E-04   2.676286563170000E-04   2.703183690300000E-04
   2.730351138050000E-04   2.757791623180000E-04   2.785507889780000E-04
   2.813502709490000E-04   2.841778881810000E-04   2.870339234390000E-04
   2.899186623280000E-04   2.928323933250000E-04   2.957754078060000E-04
   2.987480000740000E-04   3.017504673900000E-04   3.047831100050000E-04
   3.078462311850000E-04   3.109401372450000E-04   3.140651375780000E-04
   3.172215446850000E-04   3.204096742120000E-04   3.236298449730000E-04
   3.268823789890000E-04   3.301676015150000E-04   3.334858410760000E-04
   3.368374294990000E-04   3.402227019450000E-04   3.436419969460000E-04
   3.470956564320000E-04   3.505840257730000E-04   3.541074538090000E-04
   3.576662928860000E-04   3.612608988900000E-04   3.648916312850000E-04
   3.685588531470000E-04   3.722629312010000E-04   3.760042358590000E-04
   3.797831412540000E-04   3.836000252790000E-04   3.874552696270000E-04
   3.913492598240000E-04   3.952823852740000E-04   3.992550392910000E-04
   4.032676191450000E-04   4.073205260970000E-04   4.114141654410000E-04
   4.155489465450000E-04   4.197252828890000E-04   4.239435921120000E-04
   4.282042960470000E-04   4.325078207680000E-04   4.368545966320000E-04
   4.412450583200000E-04   4.456796448810000E-04   4.501587997780000E-04
   4.546829709300000E-04   4.592526107580000E-04   4.638681762300000E-04
   4.685301289060000E-04   4.732389349860000E-04   4.779950653530000E-04
   4.827989956250000E-04   4.876512061990000E-04   4.925521823000000E-04
   4.975024140300000E-04   5.025023964160000E-04   5.075526294599999E-04
   5.126536181900000E-04   5.178058727090000E-04   5.230099082470000E-04
   5.282662452120000E-04   5.335754092410000E-04   5.389379312560000E-04
   5.443543475130000E-04   5.498251996590000E-04   5.553510347820000E-04
   5.609324054720000E-04   5.665698698700000E-04   5.722639917270000E-04
   5.780153404600000E-04   5.838244912089999E-04   5.896920248940000E-04
   5.956185282720001E-04   6.016045940000000E-04   6.076508206880000E-04
   6.137578129650000E-04   6.199261815340000E-04   6.261565432380000E-04
   6.324495211190000E-04   6.388057444780000E-04   6.452258489450000E-04
   6.517104765340000E-04   6.582602757130000E-04   6.648759014690000E-04
   6.715580153690000E-04   6.783072856300000E-04   6.851243871850001E-04
   6.920100017499999E-04   6.989648178910000E-04   7.059895310970000E-04
   7.130848438440000E-04   7.202514656700001E-04   7.274901132430000E-04
   7.348015104330000E-04   7.421863883860000E-04   7.496454855970000E-04
   7.571795479810000E-04   7.647893289510000E-04   7.724755894920000E-04
   7.802390982340000E-04   7.880806315370000E-04   7.960009735600000E-04
   8.040009163430000E-04   8.120812598889999E-04   8.202428122360000E-04
   8.284863895490000E-04   8.368128161910000E-04   8.452229248119999E-04
   8.537175564290000E-04   8.622975605139999E-04   8.709637950740000E-04
   8.797171267380000E-04   8.885584308490000E-04   8.974885915430000E-04
   9.065085018440000E-04   9.156190637510000E-04   9.248211883270000E-04
   9.341157957930000E-04   9.435038156160000E-04   9.529861866080000E-04
   9.625638570120000E-04   9.722377846040000E-04   9.820089367850000E-04
   9.918782906780000E-04   1.001846833230000E-03   1.011915561290000E-03
   1.022085481760000E-03   1.032357611630000E-03   1.042732978110000E-03
   1.053212618770000E-03   1.063797581560000E-03   1.074488925000000E-03
   1.085287718230000E-03   1.096195041130000E-03   1.107211984450000E-03
   1.118339649890000E-03   1.129579150230000E-03   1.140931609420000E-03
   1.152398162730000E-03   1.163979956810000E-03   1.175678149860000E-03
   1.187493911700000E-03   1.199428423930000E-03   1.211482879990000E-03
   1.223658485360000E-03   1.235956457590000E-03   1.248378026500000E-03
   1.260924434250000E-03   1.273596935490000E-03   1.286396797490000E-03
   1.299325300240000E-03   1.312383736610000E-03   1.325573412440000E-03
   1.338895646720000E-03   1.352351771670000E-03   1.365943132930000E-03
   1.379671089650000E-03   1.393537014620000E-03   1.407542294460000E-03
   1.421688329690000E-03   1.435976534950000E-03   1.450408339050000E-03
   1.464985185200000E-03   1.479708531090000E-03   1.494579849060000E-03
   1.509600626260000E-03   1.524772364790000E-03   1.540096581820000E-03
   1.555574809790000E-03   1.571208596540000E-03   1.586999505460000E-03
   1.602949115660000E-03   1.619059022100000E-03   1.635330835790000E-03
   1.651766183920000E-03   1.668366710060000E-03   1.685134074250000E-03
   1.702069953260000E-03   1.719176040670000E-03   1.736454047130000E-03
   1.753905700440000E-03   1.771532745780000E-03   1.789336945870000E-03
   1.807320081140000E-03   1.825483949930000E-03   1.843830368640000E-03
   1.862361171920000E-03   1.881078212870000E-03   1.899983363210000E-03
   1.919078513460000E-03   1.938365573170000E-03   1.957846471050000E-03
   1.977523155210000E-03   1.997397593330000E-03   2.017471772880000E-03
   2.037747701290000E-03   2.058227406160000E-03   2.078912935490000E-03
   2.099806357840000E-03   2.120909762580000E-03   2.142225260070000E-03
   2.163754981860000E-03   2.185501080960000E-03   2.207465731990000E-03
   2.229651131430000E-03   2.252059497840000E-03   2.274693072070000E-03
   2.297554117510000E-03   2.320644920280000E-03   2.343967789470000E-03
   2.367525057390000E-03   2.391319079800000E-03   2.415352236100000E-03
   2.439626929640000E-03   2.464145587910000E-03   2.488910662780000E-03
   2.513924630800000E-03   2.539189993380000E-03   2.564709277070000E-03
   2.590485033830000E-03   2.616519841250000E-03   2.642816302830000E-03
   2.669377048250000E-03   2.696204733590000E-03   2.723302041660000E-03
   2.750671682200000E-03   2.778316392200000E-03   2.806238936150000E-03
   2.834442106340000E-03   2.862928723100000E-03   2.891701635110000E-03
   2.920763719710000E-03   2.950117883100000E-03   2.979767060740000E-03
   3.009714217580000E-03   3.039962348340000E-03   3.070514477870000E-03
   3.101373661410000E-03   3.132542984890000E-03   3.164025565290000E-03
   3.195824550880000E-03   3.227943121590000E-03   3.260384489300000E-03
   3.293151898180000E-03   3.326248624990000E-03   3.359677979430000E-03
   3.393443304470000E-03   3.427547976670000E-03   3.461995406530000E-03
   3.496789038810000E-03   3.531932352910000E-03   3.567428863180000E-03
   3.603282119320000E-03   3.639495706670000E-03   3.676073246620000E-03
   3.713018396970000E-03   3.750334852240000E-03   3.788026344130000E-03
   3.826096641810000E-03   3.864549552340000E-03   3.903388921040000E-03
   3.942618631890000E-03   3.982242607890000E-03   4.022264811470000E-03
   4.062689244880000E-03   4.103519950610000E-03   4.144761011740000E-03
   4.186416552430000E-03   4.228490738270000E-03   4.270987776700000E-03
   4.313911917470000E-03   4.357267453030000E-03   4.401058718960000E-03
   4.445290094440000E-03   4.489966002620000E-03   4.535090911150000E-03
   4.580669332550000E-03   4.626705824700000E-03   4.673204991290000E-03
   4.720171482270000E-03   4.767609994330000E-03   4.815525271370000E-03
   4.863922104940000E-03   4.912805334780000E-03   4.962179849250000E-03
   5.012050585840000E-03   5.062422531660000E-03   5.113300723950000E-03
   5.164690250580000E-03   5.216596250530000E-03   5.269023914460000E-03
   5.321978485170000E-03   5.375465258170000E-03   5.429489582170000E-03
   5.484056859650000E-03   5.539172547390000E-03   5.594842157000000E-03
   5.651071255490000E-03   5.707865465810000E-03   5.765230467430000E-03
   5.823171996910000E-03   5.881695848440000E-03   5.940807874450000E-03
   6.000513986210000E-03   6.060820154360000E-03   6.121732409580000E-03
   6.183256843140000E-03   6.245399607540000E-03   6.308166917100000E-03
   6.371565048610000E-03   6.435600341940000E-03   6.500279200660000E-03
   6.565608092720000E-03   6.631593551060000E-03   6.698242174280000E-03
   6.765560627310000E-03   6.833555642030000E-03   6.902234018010000E-03
   6.971602623140000E-03   7.041668394350000E-03   7.112438338270000E-03
   7.183919531940000E-03   7.256119123560000E-03   7.329044333130000E-03
   7.402702453250000E-03   7.477100849780000E-03   7.552246962620000E-03
   7.628148306460000E-03   7.704812471480000E-03   7.782247124170000E-03
   7.860460008060000E-03   7.939458944500001E-03   8.019251833450000E-03
   8.099846654259999E-03   8.181251466500001E-03   8.263474410689999E-03
   8.346523709210000E-03   8.430407667060000E-03   8.515134672709999E-03
   8.600713198910001E-03   8.687151803600000E-03   8.774459130710000E-03
   8.862643911049999E-03   8.951714963159999E-03   9.041681194229999E-03
   9.132551600960000E-03   9.224335270449999E-03   9.317041381159999E-03
   9.410679203770001E-03   9.505258102149999E-03   9.600787534250000E-03
   9.697277053110000E-03   9.794736307749999E-03   9.893175044189999E-03
   9.992603106380000E-03   1.009303043720000E-02   1.019446707950000E-02
   1.029692317700000E-02   1.040040897530000E-02   1.050493482330000E-02
   1.061051117350000E-02   1.071714858360000E-02   1.082485771750000E-02
   1.093364934630000E-02   1.104353434900000E-02   1.115452371450000E-02
   1.126662854150000E-02   1.137986004080000E-02   1.149422953560000E-02
   1.160974846300000E-02   1.172642837480000E-02   1.184428093930000E-02
   1.196331794170000E-02   1.208355128590000E-02   1.220499299530000E-02
   1.232765521420000E-02   1.245155020890000E-02   1.257669036890000E-02
   1.270308820850000E-02   1.283075636750000E-02   1.295970761280000E-02
   1.308995483960000E-02   1.322151107290000E-02   1.335438946830000E-02
   1.348860331380000E-02   1.362416603080000E-02   1.376109117580000E-02
   1.389939244140000E-02   1.403908365780000E-02   1.418017879420000E-02
   1.432269196040000E-02   1.446663740770000E-02   1.461202953080000E-02
   1.475888286900000E-02   1.490721210780000E-02   1.505703208030000E-02
   1.520835776850000E-02   1.536120430510000E-02   1.551558697500000E-02
   1.567152121650000E-02   1.582902262320000E-02   1.598810694530000E-02
   1.614879009150000E-02   1.631108813010000E-02   1.647501729120000E-02
   1.664059396760000E-02   1.680783471740000E-02   1.697675626460000E-02
   1.714737550160000E-02   1.731970949050000E-02   1.749377546470000E-02
   1.766959083110000E-02   1.784717317120000E-02   1.802654024360000E-02
   1.820770998500000E-02   1.839070051250000E-02   1.857553012550000E-02
   1.876221730690000E-02   1.895078072570000E-02   1.914123923840000E-02
   1.933361189090000E-02   1.952791792080000E-02   1.972417675870000E-02
   1.992240803070000E-02   2.012263156010000E-02   2.032486736950000E-02
   2.052913568250000E-02   2.073545692620000E-02   2.094385173290000E-02
   2.115434094220000E-02   2.136694560320000E-02   2.158168697660000E-02
   2.179858653670000E-02   2.201766597360000E-02   2.223894719540000E-02
   2.246245233050000E-02   2.268820372960000E-02   2.291622396790000E-02
   2.314653584770000E-02   2.337916240040000E-02   2.361412688880000E-02
   2.385145280960000E-02   2.409116389550000E-02   2.433328411790000E-02
   2.457783768900000E-02   2.482484906430000E-02   2.507434294530000E-02
   2.532634428140000E-02   2.558087827310000E-02   2.583797037390000E-02
   2.609764629320000E-02   2.635993199900000E-02   2.662485371990000E-02
   2.689243794840000E-02   2.716271144310000E-02   2.743570123150000E-02
   2.771143461300000E-02   2.798993916100000E-02   2.827124272620000E-02
   2.855537343930000E-02   2.884235971350000E-02   2.913223024770000E-02
   2.942501402930000E-02   2.972074033670000E-02   3.001943874300000E-02
   3.032113911810000E-02   3.062587163240000E-02   3.093366675940000E-02
   3.124455527890000E-02   3.155856827990000E-02   3.187573716410000E-02
   3.219609364850000E-02   3.251966976910000E-02   3.284649788380000E-02
   3.317661067570000E-02   3.351004115630000E-02   3.384682266890000E-02
   3.418698889200000E-02   3.453057384240000E-02   3.487761187910000E-02
   3.522813770590000E-02   3.558218637600000E-02   3.593979329430000E-02
   3.630099422180000E-02   3.666582527910000E-02   3.703432294940000E-02
   3.740652408290000E-02   3.778246590000000E-02   3.816218599510000E-02
   3.854572234070000E-02   3.893311329060000E-02   3.932439758430000E-02
   3.971961435050000E-02   4.011880311120000E-02   4.052200378570000E-02
   4.092925669430000E-02   4.134060256270000E-02   4.175608252580000E-02
   4.217573813200000E-02   4.259961134710000E-02   4.302774455890000E-02
   4.346018058100000E-02   4.389696265730000E-02   4.433813446650000E-02
   4.478374012610000E-02   4.523382419700000E-02   4.568843168800000E-02
   4.614760806030000E-02   4.661139923190000E-02   4.707985158220000E-02
   4.755301195690000E-02   4.803092767240000E-02   4.851364652070000E-02
   4.900121677410000E-02   4.949368719000000E-02   4.999110701590000E-02
   5.049352599410000E-02   5.100099436700000E-02   5.151356288190000E-02
   5.203128279590000E-02   5.255420588160000E-02   5.308238443170000E-02
   5.361587126450000E-02   5.415471972910000E-02   5.469898371070000E-02
   5.524871763640000E-02   5.580397647980000E-02   5.636481576740000E-02
   5.693129158350000E-02   5.750346057620000E-02   5.808137996290000E-02
   5.866510753600000E-02   5.925470166880000E-02   5.985022132110000E-02
   6.045172604540000E-02   6.105927599270000E-02   6.167293191840000E-02
   6.229275518880000E-02   6.291880778660000E-02   6.355115231760000E-02
   6.418985201669999E-02   6.483497075460000E-02   6.548657304360000E-02
   6.614472404450000E-02   6.680948957280000E-02   6.748093610590000E-02
   6.815913078870001E-02   6.884414144150000E-02   6.953603656570000E-02
   7.023488535160000E-02   7.094075768450001E-02   7.165372415229999E-02
   7.237385605219999E-02   7.310122539810000E-02   7.383590492740000E-02
   7.457796810870000E-02   7.532748914900000E-02   7.608454300100000E-02
   7.684920537070000E-02   7.762155272490000E-02   7.840166229910001E-02
   7.918961210490000E-02   7.998548093790001E-02   8.078934838559999E-02
   8.160129483549999E-02   8.242140148290000E-02   8.324975033910000E-02
   8.408642423980001E-02   8.493150685290000E-02   8.578508268750000E-02
   8.664723710180000E-02   8.751805631210000E-02   8.839762740090000E-02
   8.928603832610001E-02   9.018337792960000E-02   9.108973594600001E-02
   9.200520301190000E-02   9.292987067480001E-02   9.386383140220000E-02
   9.480717859090000E-02   9.576000657650000E-02   9.672241064260000E-02
   9.769448703030000E-02   9.867633294820000E-02   9.966804658160000E-02
   1.006697271030000E-01   1.016814746800000E-01   1.027033904900000E-01
   1.037355767250000E-01   1.047781366030000E-01   1.058311743830000E-01
   1.068947953680000E-01   1.079691059220000E-01   1.090542134770000E-01
   1.101502265430000E-01   1.112572547240000E-01   1.123754087240000E-01
   1.135048003580000E-01   1.146455425660000E-01   1.157977494240000E-01
   1.169615361540000E-01   1.181370191350000E-01   1.193243159160000E-01
   1.205235452280000E-01   1.217348269950000E-01   1.229582823460000E-01
   1.241940336280000E-01   1.254422044170000E-01   1.267029195310000E-01
   1.279763050420000E-01   1.292624882910000E-01   1.305615978960000E-01
   1.318737637700000E-01   1.331991171290000E-01   1.345377905120000E-01
   1.358899177860000E-01   1.372556341650000E-01   1.386350762210000E-01
   1.400283819010000E-01   1.414356905360000E-01   1.428571428570000E-01
   1.442928810120000E-01   1.457430485750000E-01   1.472077905650000E-01
   1.486872534560000E-01   1.501815851970000E-01   1.516909352210000E-01
   1.532154544650000E-01   1.547552953820000E-01   1.563106119580000E-01
   1.578815597250000E-01   1.594682957800000E-01   1.610709787970000E-01
   1.626897690460000E-01   1.643248284080000E-01   1.659763203900000E-01
   1.676444101420000E-01   1.693292644740000E-01   1.710310518750000E-01
   1.727499425220000E-01   1.744861083090000E-01   1.762397228510000E-01
   1.780109615120000E-01   1.798000014180000E-01   1.816070214740000E-01
   1.834322023840000E-01   1.852757266670000E-01   1.871377786760000E-01
   1.890185446200000E-01   1.909182125750000E-01   1.928369725110000E-01
   1.947750163050000E-01   1.967325377620000E-01   1.987097326380000E-01
   2.007067986520000E-01   2.027239355130000E-01   2.047613449370000E-01
   2.068192306660000E-01   2.088977984910000E-01   2.109972562690000E-01
   2.131178139490000E-01   2.152596835880000E-01   2.174230793740000E-01
   2.196082176500000E-01   2.218153169300000E-01   2.240445979270000E-01
   2.262962835710000E-01   2.285705990310000E-01   2.308677717420000E-01
   2.331880314220000E-01   2.355316101000000E-01   2.378987421350000E-01
   2.402896642430000E-01   2.427046155170000E-01   2.451438374550000E-01
   2.476075739810000E-01   2.500960714710000E-01   2.526095787760000E-01
   2.551483472500000E-01   2.577126307710000E-01   2.603026857700000E-01
   2.629187712550000E-01   2.655611488350000E-01   2.682300827520000E-01
   2.709258399010000E-01   2.736486898590000E-01   2.763989049150000E-01
   2.791767600910000E-01   2.819825331760000E-01   2.848165047490000E-01
   2.876789582100000E-01   2.905701798070000E-01   2.934904586630000E-01
   2.964400868110000E-01   2.994193592130000E-01   3.024285738020000E-01
   3.054680315000000E-01   3.085380362550000E-01   3.116388950710000E-01
   3.147709180370000E-01   3.179344183560000E-01   3.211297123820000E-01
   3.243571196470000E-01   3.276169628950000E-01   3.309095681120000E-01
   3.342352645610000E-01   3.375943848150000E-01   3.409872647890000E-01
   3.444142437740000E-01   3.478756644700000E-01   3.513718730220000E-01
   3.549032190550000E-01   3.584700557050000E-01   3.620727396600000E-01
   3.657116311900000E-01   3.693870941880000E-01   3.730994962030000E-01
   3.768492084790000E-01   3.806366059900000E-01   3.844620674780000E-01
   3.883259754940000E-01   3.922287164310000E-01   3.961706805660000E-01
   4.001522621000000E-01   4.041738591930000E-01   4.082358740090000E-01
   4.123387127530000E-01   4.164827857110000E-01   4.206685072950000E-01
   4.248962960800000E-01   4.291665748490000E-01   4.334797706340000E-01
   4.378363147560000E-01   4.422366428750000E-01   4.466811950270000E-01
   4.511704156700000E-01   4.557047537310000E-01   4.602846626470000E-01
   4.649106004130000E-01   4.695830296260000E-01   4.743024175340000E-01
   4.790692360780000E-01   4.838839619460000E-01   4.887470766130000E-01
   4.936590663950000E-01   4.986204224950000E-01   5.036316410520000E-01
   5.086932231940000E-01   5.138056750809999E-01   5.189695079650000E-01
   5.241852382310001E-01   5.294533874589999E-01   5.347744824660000E-01
   5.401490553670000E-01   5.455776436240000E-01   5.510607901000000E-01
   5.565990431140000E-01   5.621929564960000E-01   5.678430896420000E-01
   5.735500075710001E-01   5.793142809780000E-01   5.851364862960000E-01
   5.910172057500001E-01   5.969570274180001E-01   6.029565452850000E-01
   6.090163593100000E-01   6.151370754780000E-01   6.213193058660000E-01
   6.275636687030000E-01   6.338707884290000E-01   6.402412957630000E-01
   6.466758277590000E-01   6.531750278770000E-01   6.597395460430000E-01
   6.663700387130000E-01   6.730671689420000E-01   6.798316064480000E-01
   6.866640276820000E-01   6.935651158910000E-01   7.005355611900000E-01
   7.075760606280000E-01   7.146873182620000E-01   7.218700452230000E-01
   7.291249597910000E-01   7.364527874620000E-01   7.438542610260001E-01
   7.513301206350000E-01   7.588811138829999E-01   7.665079958750000E-01
   7.742115293039999E-01   7.819924845320000E-01   7.898516396610000E-01
   7.977897806110000E-01   8.058077012040000E-01   8.139062032390000E-01
   8.220860965720000E-01   8.303481992000000E-01   8.386933373400000E-01
   8.471223455130000E-01   8.556360666260000E-01   8.642353520590000E-01
   8.729210617470000E-01   8.816940642690000E-01   8.905552369320000E-01
   8.995054658610000E-01   9.085456460860000E-01   9.176766816330000E-01
   9.268994856120000E-01   9.362149803130000E-01   9.456240972920000E-01
   9.551277774680000E-01   9.647269712190000E-01   9.744226384700000E-01
   9.842157487970000E-01   9.941072815200001E-01   1.004098225800000E+00
   1.014189580740000E+00   1.024382355480000E+00   1.034677569310000E+00
   1.045076251760000E+00   1.055579442700000E+00   1.066188192470000E+00
   1.076903561950000E+00   1.087726622680000E+00   1.098658456980000E+00
   1.109700158040000E+00   1.120852830050000E+00   1.132117588260000E+00
   1.143495559190000E+00   1.154987880620000E+00   1.166595701800000E+00
   1.178320183520000E+00   1.190162498240000E+00   1.202123830210000E+00
   1.214205375560000E+00   1.226408342450000E+00   1.238733951210000E+00
   1.251183434390000E+00   1.263758036960000E+00   1.276459016390000E+00
   1.289287642780000E+00   1.302245199010000E+00   1.315332980840000E+00
   1.328552297070000E+00   1.341904469630000E+00   1.355390833770000E+00
   1.369012738110000E+00   1.382771544870000E+00   1.396668629930000E+00
   1.410705383020000E+00   1.424883207830000E+00   1.439203522140000E+00
   1.453667758010000E+00   1.468277361860000E+00   1.483033794680000E+00
   1.497938532100000E+00   1.512993064630000E+00   1.528198897730000E+00
   1.543557551990000E+00   1.559070563290000E+00   1.574739482950000E+00
   1.590565877870000E+00   1.606551330700000E+00   1.622697440000000E+00
   1.639005820400000E+00   1.655478102750000E+00   1.672115934280000E+00
   1.688920978810000E+00   1.705894916840000E+00   1.723039445780000E+00
   1.740356280100000E+00   1.757847151500000E+00   1.775513809080000E+00
   1.793358019520000E+00   1.811381567260000E+00   1.829586254670000E+00
   1.847973902220000E+00   1.866546348700000E+00   1.885305451380000E+00
   1.904253086170000E+00   1.923391147860000E+00   1.942721550260000E+00
   1.962246226440000E+00   1.981967128880000E+00   2.001886229680000E+00
   2.022005520770000E+00   2.042327014100000E+00   2.062852741830000E+00
   2.083584756550000E+00   2.104525131490000E+00   2.125675960700000E+00
   2.147039359270000E+00   2.168617463560000E+00   2.190412431420000E+00
   2.212426442330000E+00   2.234661697740000E+00   2.257120421180000E+00
   2.279804858540000E+00   2.302717278290000E+00   2.325859971680000E+00
   2.349235253010000E+00   2.372845459830000E+00   2.396692953160000E+00
   2.420780117790000E+00   2.445109362450000E+00   2.469683120080000E+00
   2.494503848080000E+00   2.519574028550000E+00   2.544896168520000E+00
   2.570472800220000E+00   2.596306481350000E+00   2.622399795290000E+00
   2.648755351390000E+00   2.675375785240000E+00   2.702263758890000E+00
   2.729421961180000E+00   2.756853107930000E+00   2.784559942290000E+00
   2.812545234970000E+00   2.840811784510000E+00   2.869362417600000E+00
   2.898199989320000E+00   2.927327383460000E+00   2.956747512770000E+00
   2.986463319300000E+00   3.016477774650000E+00   3.046793880290000E+00
   3.077414667860000E+00   3.108343199460000E+00   3.139582567970000E+00
   3.171135897350000E+00   3.203006342960000E+00   3.235197091880000E+00
   3.267711363210000E+00   3.300552408390000E+00   3.333723511560000E+00
   3.367227989870000E+00   3.401069193780000E+00   3.435250507440000E+00
   3.469775349010000E+00   3.504647171020000E+00   3.539869460660000E+00
   3.575445740190000E+00   3.611379567280000E+00   3.647674535340000E+00
   3.684334273880000E+00   3.721362448930000E+00   3.758762763320000E+00
   3.796538957120000E+00   3.834694807990000E+00   3.873234131520000E+00
   3.912160781700000E+00   3.951478651220000E+00   3.991191671890000E+00
   4.031303815060000E+00   4.071819091970000E+00   4.112741554180000E+00
   4.154075293970000E+00   4.195824444760000E+00   4.237993181480000E+00
   4.280585721060000E+00   4.323606322770000E+00   4.367059288720000E+00
   4.410948964240000E+00   4.455279738330000E+00   4.500056044110000E+00
   4.545282359240000E+00   4.590963206390000E+00   4.637103153690000E+00
   4.683706815180000E+00   4.730778851240000E+00   4.778323969130000E+00
   4.826346923410000E+00   4.874852516390000E+00   4.923845598690000E+00
   4.973331069660000E+00   5.023313877870000E+00   5.073799021660000E+00
   5.124791549580000E+00   5.176296560930000E+00   5.228319206240000E+00
   5.280864687830000E+00   5.333938260290000E+00   5.387545231030000E+00
   5.441690960770000E+00   5.496380864150000E+00   5.551620410190000E+00
   5.607415122900000E+00   5.663770581800000E+00   5.720692422470000E+00