<UPF version="2.0.1">
  <PP_INFO>
    Generated by new atomic code, or converted to UPF format
    Author: 
    Generation date: 
    Pseudopotential type: NC
    Element: Ne
    Functional:  SLA  PW   SCAN SCAN
    Suggested minimum cutoff for wavefunctions:   0. Ry
    Suggested minimum cutoff for charge density:   0. Ry
    The Pseudo was generated with a Non-Relativistic Calculation
    L component and cutoff radius for Local Potential:  0   0.0000
    Valence configuration: 
    nl pn  l   occ       Rcut    Rcut US       E pseu
    0S  1  0  2.00      0.000      0.000     0.000000
    0P  2  1  6.00      0.000      0.000     0.000000
    Generation configuration: not available.
  </PP_INFO>
    <!-- END OF HUMAN READABLE SECTION -->
  <PP_HEADER generated="Generated by new atomic code, or converted to UPF format" author="" date="" comment="" element="Ne" pseudo_type="NC" relativistic="no" is_ultrasoft="false" is_paw="false" is_coulomb="false" has_so="false" has_wfc="false" has_gipaw="false" paw_as_gipaw="false" core_correction="false" functional=" SLA  PW   SCAN SCAN" z_valence="8.00000000000000" total_psenergy="0.000000000000000E+000" wfc_cutoff="0.000000000000000E+000" rho_cutoff="0.000000000000000E+000" l_max="0" l_max_rho="0" l_local="0" mesh_size="1441" number_of_wfc="2" number_of_proj="1"/>
  <PP_MESH mesh="1441" dx="9.999999999998895E-003" xmin="-7.99999999999855" rmax="60.1845037872000" zmesh="10.0000000000000">
    <PP_R>
   3.354626279030000E-05   3.388340833630000E-05   3.422394225150000E-05
   3.456789858940000E-05   3.491531174600000E-05   3.526621646280000E-05
   3.562064783070000E-05   3.597864129300000E-05   3.634023264950000E-05
   3.670545805950000E-05   3.707435404590000E-05   3.744695749860000E-05
   3.782330567830000E-05   3.820343622000000E-05   3.858738713720000E-05
   3.897519682530000E-05   3.936690406550000E-05   3.976254802900000E-05
   4.016216828030000E-05   4.056580478200000E-05   4.097349789800000E-05
   4.138528839790000E-05   4.180121746110000E-05   4.222132668090000E-05
   4.264565806860000E-05   4.307425405760000E-05   4.350715750790000E-05
   4.394441171020000E-05   4.438606039030000E-05   4.483214771340000E-05
   4.528271828870000E-05   4.573781717350000E-05   4.619748987820000E-05
   4.666178237030000E-05   4.713074107960000E-05   4.760441290220000E-05
   4.808284520580000E-05   4.856608583400000E-05   4.905418311130000E-05
   4.954718584770000E-05   5.004514334410000E-05   5.054810539640000E-05
   5.105612230140000E-05   5.156924486120000E-05   5.208752438850000E-05
   5.261101271160000E-05   5.313976217980000E-05   5.367382566850000E-05
   5.421325658460000E-05   5.475810887140000E-05   5.530843701480000E-05
   5.586429604790000E-05   5.642574155730000E-05   5.699282968780000E-05
   5.756561714870000E-05   5.814416121940000E-05   5.872851975460000E-05
   5.931875119070000E-05   5.991491455140000E-05   6.051706945350000E-05
   6.112527611300000E-05   6.173959535100000E-05   6.236008859990001E-05
   6.298681790980000E-05   6.361984595390000E-05   6.425923603560000E-05
   6.490505209440000E-05   6.555735871260000E-05   6.621622112120000E-05
   6.688170520719999E-05   6.755387751939999E-05   6.823280527560001E-05
   6.891855636930000E-05   6.961119937600000E-05   7.031080356060000E-05
   7.101743888430000E-05   7.173117601090000E-05   7.245208631500001E-05
   7.318024188800000E-05   7.391571554630000E-05   7.465858083770000E-05
   7.540891204940000E-05   7.616678421510001E-05   7.693227312269999E-05
   7.770545532180000E-05   7.848640813110000E-05   7.927520964660000E-05
   8.007193874920000E-05   8.087667511240000E-05   8.168949921050000E-05
   8.251049232660000E-05   8.333973656070000E-05   8.417731483790000E-05
   8.502331091669999E-05   8.587780939740001E-05   8.674089573069999E-05
   8.761265622580001E-05   8.849317805960000E-05   8.938254928490000E-05
   9.028085883960001E-05   9.118819655549999E-05   9.210465316690000E-05
   9.303032032050001E-05   9.396529058360000E-05   9.490965745410000E-05
   9.586351536940000E-05   9.682695971610000E-05   9.780008683950001E-05
   9.878299405310000E-05   9.977577964840000E-05   1.007785429050000E-04
   1.017913841000000E-04   1.028144045170000E-04   1.038477064620000E-04
   1.048913932630000E-04   1.059455692910000E-04   1.070103399640000E-04
   1.080858117600000E-04   1.091720922280000E-04   1.102692899960000E-04
   1.113775147840000E-04   1.124968774170000E-04   1.136274898320000E-04
   1.147694650900000E-04   1.159229173900000E-04   1.170879620790000E-04
   1.182647156620000E-04   1.194532958140000E-04   1.206538213960000E-04
   1.218664124600000E-04   1.230911902670000E-04   1.243282772960000E-04
   1.255777972560000E-04   1.268398751010000E-04   1.281146370380000E-04
   1.294022105470000E-04   1.307027243840000E-04   1.320163086020000E-04
   1.333430945610000E-04   1.346832149410000E-04   1.360368037550000E-04
   1.374039963620000E-04   1.387849294840000E-04   1.401797412140000E-04
   1.415885710350000E-04   1.430115598310000E-04   1.444488499020000E-04
   1.459005849790000E-04   1.473669102350000E-04   1.488479723060000E-04
   1.503439192980000E-04   1.518549008070000E-04   1.533810679320000E-04
   1.549225732930000E-04   1.564795710390000E-04   1.580522168740000E-04
   1.596406680610000E-04   1.612450834490000E-04   1.628656234790000E-04
   1.645024502070000E-04   1.661557273170000E-04   1.678256201390000E-04
   1.695122956620000E-04   1.712159225570000E-04   1.729366711860000E-04
   1.746747136260000E-04   1.764302236830000E-04   1.782033769100000E-04
   1.799943506230000E-04   1.818033239210000E-04   1.836304777030000E-04
   1.854759946860000E-04   1.873400594220000E-04   1.892228583210000E-04
   1.911245796630000E-04   1.930454136230000E-04   1.949855522850000E-04
   1.969451896640000E-04   1.989245217270000E-04   2.009237464070000E-04
   2.029430636300000E-04   2.049826753280000E-04   2.070427854640000E-04
   2.091236000520000E-04   2.112253271730000E-04   2.133481770040000E-04
   2.154923618300000E-04   2.176580960720000E-04   2.198455963040000E-04
   2.220550812800000E-04   2.242867719490000E-04   2.265408914810000E-04
   2.288176652920000E-04   2.311173210600000E-04   2.334400887530000E-04
   2.357862006490000E-04   2.381558913620000E-04   2.405493978620000E-04
   2.429669595020000E-04   2.454088180410000E-04   2.478752176670000E-04
   2.503664050200000E-04   2.528826292230000E-04   2.554241418990000E-04
   2.579911972030000E-04   2.605840518410000E-04   2.632029651010000E-04
   2.658481988780000E-04   2.685200176950000E-04   2.712186887390000E-04
   2.739444818770000E-04   2.766976696910000E-04   2.794785275040000E-04
   2.822873334020000E-04   2.851243682680000E-04   2.879899158090000E-04
   2.908842625810000E-04   2.938076980220000E-04   2.967605144780000E-04
   2.997430072330000E-04   3.027554745380000E-04   3.057982176420000E-04
   3.088715408240000E-04   3.119757514160000E-04   3.151111598440000E-04
   3.182780796510000E-04   3.214768275310000E-04   3.247077233610000E-04
   3.279710902340000E-04   3.312672544900000E-04   3.345965457470000E-04
   3.379592969380000E-04   3.413558443400000E-04   3.447865276100000E-04
   3.482516898210000E-04   3.517516774910000E-04   3.552868406220000E-04
   3.588575327330000E-04   3.624641108970000E-04   3.661069357730000E-04
   3.697863716480000E-04   3.735027864690000E-04   3.772565518790000E-04
   3.810480432590000E-04   3.848776397610000E-04   3.887457243480000E-04
   3.926526838310000E-04   3.965989089090000E-04   4.005847942090000E-04
   4.046107383220000E-04   4.086771438460000E-04   4.127844174260000E-04
   4.169329697900000E-04   4.211232158000000E-04   4.253555744820000E-04
   4.296304690750000E-04   4.339483270740000E-04   4.383095802670000E-04
   4.427146647830000E-04   4.471640211350000E-04   4.516580942610000E-04
   4.561973335740000E-04   4.607821929990000E-04   4.654131310280000E-04
   4.700906107580000E-04   4.748150999410000E-04   4.795870710300000E-04
   4.844070012250000E-04   4.892753725240000E-04   4.941926717680000E-04
   4.991593906909999E-04   5.041760259690000E-04   5.092430792700000E-04
   5.143610573030000E-04   5.195304718710000E-04   5.247518399180000E-04
   5.300256835870000E-04   5.353525302660000E-04   5.407329126440000E-04
   5.461673687640000E-04   5.516564420760000E-04   5.572006814920000E-04
   5.628006414400000E-04   5.684568819220000E-04   5.741699685650000E-04
   5.799404726840000E-04   5.857689713340000E-04   5.916560473680000E-04
   5.976022895010000E-04   6.036082923600000E-04   6.096746565520000E-04
   6.158019887170000E-04   6.219909015940000E-04   6.282420140800000E-04
   6.345559512910000E-04   6.409333446260000E-04   6.473748318290000E-04
   6.538810570550000E-04   6.604526709310000E-04   6.670903306260000E-04
   6.737946999090000E-04   6.805664492230000E-04   6.874062557500000E-04
   6.943148034750000E-04   7.012927832590000E-04   7.083408929049999E-04
   7.154598372310000E-04   7.226503281380000E-04   7.299130846790000E-04
   7.372488331370000E-04   7.446583070920000E-04   7.521422474990001E-04
   7.597014027580000E-04   7.673365287900000E-04   7.750483891140000E-04
   7.828377549230000E-04   7.907054051590000E-04   7.986521265960000E-04
   8.066787139100000E-04   8.147859697680000E-04   8.229747049020000E-04
   8.312457381920000E-04   8.395998967490000E-04   8.480380159950000E-04
   8.565609397500000E-04   8.651695203120000E-04   8.738646185470000E-04
   8.826471039730000E-04   8.915178548440000E-04   9.004777582440000E-04
   9.095277101700000E-04   9.186686156240000E-04   9.279013887060000E-04
   9.372269527010000E-04   9.466462401710000E-04   9.561601930540000E-04
   9.657697627540000E-04   9.754759102340000E-04   9.852796061190000E-04
   9.951818307850000E-04   1.005183574460000E-03   1.015285837340000E-03
   1.025489629640000E-03   1.035795971760000E-03   1.046205894340000E-03
   1.056720438390000E-03   1.067340655350000E-03   1.078067607270000E-03
   1.088902366860000E-03   1.099846017580000E-03   1.110899653820000E-03
   1.122064380960000E-03   1.133341315470000E-03   1.144731585050000E-03
   1.156236328750000E-03   1.167856697040000E-03   1.179593851980000E-03
   1.191448967280000E-03   1.203423228470000E-03   1.215517832990000E-03
   1.227733990310000E-03   1.240072922040000E-03   1.252535862110000E-03
   1.265124056800000E-03   1.277838764950000E-03   1.290681258050000E-03
   1.303652820340000E-03   1.316754749010000E-03   1.329988354240000E-03
   1.343354959420000E-03   1.356855901220000E-03   1.370492529740000E-03
   1.384266208650000E-03   1.398178315330000E-03   1.412230241020000E-03
   1.426423390900000E-03   1.440759184310000E-03   1.455239054840000E-03
   1.469864450490000E-03   1.484636833810000E-03   1.499557682050000E-03
   1.514628487300000E-03   1.529850756670000E-03   1.545226012390000E-03
   1.560755792000000E-03   1.576441648490000E-03   1.592285150450000E-03
   1.608287882260000E-03   1.624451444190000E-03   1.640777452630000E-03
   1.657267540180000E-03   1.673923355860000E-03   1.690746565270000E-03
   1.707738850750000E-03   1.724901911530000E-03   1.742237463950000E-03
   1.759747241560000E-03   1.777432995370000E-03   1.795296493950000E-03
   1.813339523680000E-03   1.831563888870000E-03   1.849971411980000E-03
   1.868563933770000E-03   1.887343313520000E-03   1.906311429160000E-03
   1.925470177540000E-03   1.944821474540000E-03   1.964367255310000E-03
   1.984109474440000E-03   2.004050106170000E-03   2.024191144580000E-03
   2.044534603790000E-03   2.065082518170000E-03   2.085836942520000E-03
   2.106799952300000E-03   2.127973643840000E-03   2.149360134510000E-03
   2.170961562980000E-03   2.192780089430000E-03   2.214817895700000E-03
   2.237077185620000E-03   2.259560185110000E-03   2.282269142510000E-03
   2.305206328720000E-03   2.328374037490000E-03   2.351774585600000E-03
   2.375410313130000E-03   2.399283583670000E-03   2.423396784570000E-03
   2.447752327170000E-03   2.472352647030000E-03   2.497200204230000E-03
   2.522297483520000E-03   2.547646994670000E-03   2.573251272640000E-03
   2.599112877880000E-03   2.625234396570000E-03   2.651618440890000E-03
   2.678267649260000E-03   2.705184686640000E-03   2.732372244730000E-03
   2.759833042320000E-03   2.787569825520000E-03   2.815585368030000E-03
   2.843882471420000E-03   2.872463965420000E-03   2.901332708220000E-03
   2.930491586700000E-03   2.959943516790000E-03   2.989691443690000E-03
   3.019738342230000E-03   3.050087217120000E-03   3.080741103280000E-03
   3.111703066110000E-03   3.142976201840000E-03   3.174563637810000E-03
   3.206468532790000E-03   3.238694077290000E-03   3.271243493900000E-03
   3.304120037590000E-03   3.337326996030000E-03   3.370867689960000E-03
   3.404745473460000E-03   3.438963734350000E-03   3.473525894470000E-03
   3.508435410080000E-03   3.543695772160000E-03   3.579310506770000E-03
   3.615283175400000E-03   3.651617375370000E-03   3.688316740120000E-03
   3.725384939620000E-03   3.762825680720000E-03   3.800642707520000E-03
   3.838839801760000E-03   3.877420783170000E-03   3.916389509900000E-03
   3.955749878840000E-03   3.995505826070000E-03   4.035661327200000E-03
   4.076220397840000E-03   4.117187093910000E-03   4.158565512120000E-03
   4.200359790340000E-03   4.242574108050000E-03   4.285212686700000E-03
   4.328279790200000E-03   4.371779725280000E-03   4.415716841970000E-03
   4.460095534030000E-03   4.504920239360000E-03   4.550195440460000E-03
   4.595925664900000E-03   4.642115485740000E-03   4.688769522000000E-03
   4.735892439110000E-03   4.783488949420000E-03   4.831563812610000E-03
   4.880121836200000E-03   4.929167876050000E-03   4.978706836790000E-03
   5.028743672360000E-03   5.079283386490000E-03   5.130331033190000E-03
   5.181891717270000E-03   5.233970594840000E-03   5.286572873840000E-03
   5.339703814520000E-03   5.393368730040000E-03   5.447572986920000E-03
   5.502322005640000E-03   5.557621261150000E-03   5.613476283410000E-03
   5.669892657980000E-03   5.726876026550000E-03   5.784432087480000E-03
   5.842566596450000E-03   5.901285366940000E-03   5.960594270890000E-03
   6.020499239240000E-03   6.081006262520000E-03   6.142121391500000E-03
   6.203850737740000E-03   6.266200474220000E-03   6.329176835960000E-03
   6.392786120670000E-03   6.457034689320000E-03   6.521928966810000E-03
   6.587475442640000E-03   6.653680671500000E-03   6.720551273970000E-03
   6.788093937180000E-03   6.856315415430000E-03   6.925222530930000E-03
   6.994822174470000E-03   7.065121306040000E-03   7.136126955640000E-03
   7.207846223880000E-03   7.280286282740000E-03   7.353454376310000E-03
   7.427357821430000E-03   7.502004008530000E-03   7.577400402280000E-03
   7.653554542390000E-03   7.730474044330000E-03   7.808166600120000E-03
   7.886639979070000E-03   7.965902028590001E-03   8.045960674950000E-03
   8.126823924090001E-03   8.208499862390001E-03   8.290996657520000E-03
   8.374322559220000E-03   8.458485900160000E-03   8.543495096730001E-03
   8.629358649940000E-03   8.716085146200000E-03   8.803683258240000E-03
   8.892161745940000E-03   8.981529457220000E-03   9.071795328940001E-03
   9.162968387749999E-03   9.255057751029999E-03   9.348072627810001E-03
   9.442022319630001E-03   9.536916221550000E-03   9.632763823050000E-03
   9.729574708950001E-03   9.827358560440000E-03   9.926125155959999E-03
   1.002588437230000E-02   1.012664618540000E-02   1.022842067160000E-02
   1.033121800830000E-02   1.043504847550000E-02   1.053992245620000E-02
   1.064585043790000E-02   1.075284301360000E-02   1.086091088250000E-02
   1.097006485160000E-02   1.108031583620000E-02   1.119167486170000E-02
   1.130415306400000E-02   1.141776169110000E-02   1.153251210380000E-02
   1.164841577730000E-02   1.176548430220000E-02   1.188372938520000E-02
   1.200316285110000E-02   1.212379664330000E-02   1.224564282530000E-02
   1.236871358170000E-02   1.249302121990000E-02   1.261857817050000E-02
   1.274539698950000E-02   1.287349035880000E-02   1.300287108780000E-02
   1.313355211480000E-02   1.326554650800000E-02   1.339886746690000E-02
   1.353352832370000E-02   1.366954254460000E-02   1.380692373110000E-02
   1.394568562150000E-02   1.408584209210000E-02   1.422740715870000E-02
   1.437039497780000E-02   1.451481984840000E-02   1.466069621300000E-02
   1.480803865950000E-02   1.495686192230000E-02   1.510718088360000E-02
   1.525901057570000E-02   1.541236618150000E-02   1.556726303680000E-02
   1.572371663140000E-02   1.588174261070000E-02   1.604135677750000E-02
   1.620257509340000E-02   1.636541368030000E-02   1.652988882220000E-02
   1.669601696670000E-02   1.686381472690000E-02   1.703329888250000E-02
   1.720448638230000E-02   1.737739434500000E-02   1.755204006170000E-02
   1.772844099700000E-02   1.790661479110000E-02   1.808657926170000E-02
   1.826835240530000E-02   1.845195239930000E-02   1.863739760390000E-02
   1.882470656390000E-02   1.901389801020000E-02   1.920499086210000E-02
   1.939800422910000E-02   1.959295741270000E-02   1.978986990840000E-02
   1.998876140750000E-02   2.018965179950000E-02   2.039256117340000E-02
   2.059750982050000E-02   2.080451823570000E-02   2.101360712010000E-02
   2.122479738270000E-02   2.143811014270000E-02   2.165356673160000E-02
   2.187118869520000E-02   2.209099779590000E-02   2.231301601480000E-02
   2.253726555390000E-02   2.276376883840000E-02   2.299254851870000E-02
   2.322362747300000E-02   2.345702880940000E-02   2.369277586820000E-02
   2.393089222440000E-02   2.417140168970000E-02   2.441432831530000E-02
   2.465969639420000E-02   2.490753046320000E-02   2.515785530600000E-02
   2.541069595530000E-02   2.566607769540000E-02   2.592402606460000E-02
   2.618456685800000E-02   2.644772613000000E-02   2.671353019660000E-02
   2.698200563850000E-02   2.725317930340000E-02   2.752707830900000E-02
   2.780373004530000E-02   2.808316217780000E-02   2.836540265000000E-02
   2.865047968600000E-02   2.893842179390000E-02   2.922925776810000E-02
   2.952301669240000E-02   2.981972794300000E-02   3.011942119120000E-02
   3.042212640670000E-02   3.072787386010000E-02   3.103669412650000E-02
   3.134861808830000E-02   3.166367693790000E-02   3.198190218160000E-02
   3.230332564220000E-02   3.262797946230000E-02   3.295589610750000E-02
   3.328710836980000E-02   3.362164937070000E-02   3.395955256450000E-02
   3.430085174190000E-02   3.464558103300000E-02   3.499377491110000E-02
   3.534546819590000E-02   3.570069605690000E-02   3.605949401730000E-02
   3.642189795720000E-02   3.678794411710000E-02   3.715766910220000E-02
   3.753110988510000E-02   3.790830381030000E-02   3.828928859750000E-02
   3.867410234550000E-02   3.906278353590000E-02   3.945537103720000E-02
   3.985190410850000E-02   4.025242240340000E-02   4.065696597410000E-02
   4.106557527520000E-02   4.147829116820000E-02   4.189515492480000E-02
   4.231620823180000E-02   4.274149319490000E-02   4.317105234290000E-02
   4.360492863220000E-02   4.404316545060000E-02   4.448580662230000E-02
   4.493289641170000E-02   4.538447952820000E-02   4.584060113050000E-02
   4.630130683110000E-02   4.676664270100000E-02   4.723665527410000E-02
   4.771139155210000E-02   4.819089900900000E-02   4.867522559600000E-02
   4.916441974610000E-02   4.965853037910000E-02   5.015760690660000E-02
   5.066169923660000E-02   5.117085777870000E-02   5.168513344920000E-02
   5.220457767610000E-02   5.272924240430000E-02   5.325918010070000E-02
   5.379444375950000E-02   5.433508690750000E-02   5.488116360940000E-02
   5.543272847350000E-02   5.598983665650000E-02   5.655254387000000E-02
   5.712090638490000E-02   5.769498103800000E-02   5.827482523740000E-02
   5.886049696780000E-02   5.945205479700000E-02   6.004955788120000E-02
   6.065306597130000E-02   6.126263941840000E-02   6.187833918060000E-02
   6.250022682830000E-02   6.312836455070001E-02   6.376281516220000E-02
   6.440364210830000E-02   6.505090947229999E-02   6.570468198149999E-02
   6.636502501360000E-02   6.703200460360000E-02   6.770568744980000E-02
   6.838614092120000E-02   6.907343306369999E-02   6.976763260710001E-02
   7.046880897190000E-02   7.117703227630000E-02   7.189237334320001E-02
   7.261490370739999E-02   7.334469562239999E-02   7.408182206820001E-02
   7.482635675790000E-02   7.557837414559999E-02   7.633794943369999E-02
   7.710515858040000E-02   7.788007830710000E-02   7.866278610669999E-02
   7.945336025030000E-02   8.025187979620001E-02   8.105842459700000E-02
   8.187307530780000E-02   8.269591339430001E-02   8.352702114110000E-02
   8.436648165960001E-02   8.521437889660000E-02   8.607079764250000E-02
   8.693582353990000E-02   8.780954309210000E-02   8.869204367170000E-02
   8.958341352970001E-02   9.048374180360000E-02   9.139311852710000E-02
   9.231163463870000E-02   9.323938199060000E-02   9.417645335840000E-02
   9.512294245010000E-02   9.607894391520000E-02   9.704455335490000E-02
   9.801986733070001E-02   9.900498337490000E-02   1.000000000000000E-01
   1.010050167080000E-01   1.020201340030000E-01   1.030454533950000E-01
   1.040810774190000E-01   1.051271096380000E-01   1.061836546550000E-01
   1.072508181250000E-01   1.083287067670000E-01   1.094174283710000E-01
   1.105170918080000E-01   1.116278070460000E-01   1.127496851580000E-01
   1.138828383320000E-01   1.150273798860000E-01   1.161834242730000E-01
   1.173510870990000E-01   1.185304851320000E-01   1.197217363120000E-01
   1.209249597660000E-01   1.221402758160000E-01   1.233678059960000E-01
   1.246076730590000E-01   1.258600009930000E-01   1.271249150320000E-01
   1.284025416690000E-01   1.296930086670000E-01   1.309964450730000E-01
   1.323129812340000E-01   1.336427488030000E-01   1.349858807580000E-01
   1.363425114130000E-01   1.377127764340000E-01   1.390968128460000E-01
   1.404947590560000E-01   1.419067548590000E-01   1.433329414560000E-01
   1.447734614660000E-01   1.462284589430000E-01   1.476980793880000E-01
   1.491824697640000E-01   1.506817785110000E-01   1.521961555620000E-01
   1.537257523550000E-01   1.552707218510000E-01   1.568312185490000E-01
   1.584073984990000E-01   1.599994193220000E-01   1.616074402190000E-01
   1.632316219960000E-01   1.648721270700000E-01   1.665291194950000E-01
   1.682027649700000E-01   1.698932308620000E-01   1.716006862180000E-01
   1.733253017870000E-01   1.750672500300000E-01   1.768267051430000E-01
   1.786038430750000E-01   1.803988415400000E-01   1.822118800390000E-01
   1.840431398780000E-01   1.858928041850000E-01   1.877610579260000E-01
   1.896480879300000E-01   1.915540829010000E-01   1.934792334400000E-01
   1.954237320640000E-01   1.973877732230000E-01   1.993715533240000E-01
   2.013752707470000E-01   2.033991258650000E-01   2.054433210640000E-01
   2.075080607670000E-01   2.095935514490000E-01   2.117000016610000E-01
   2.138276220500000E-01   2.159766253780000E-01   2.181472265500000E-01
   2.203396426260000E-01   2.225540928490000E-01   2.247907986680000E-01
   2.270499837530000E-01   2.293318740260000E-01   2.316366976780000E-01
   2.339646851930000E-01   2.363160693710000E-01   2.386910853520000E-01
   2.410899706420000E-01   2.435129651290000E-01   2.459603111160000E-01
   2.484322533380000E-01   2.509290389940000E-01   2.534509177620000E-01
   2.559981418330000E-01   2.585709659320000E-01   2.611696473420000E-01
   2.637944459350000E-01   2.664456241930000E-01   2.691234472350000E-01
   2.718281828460000E-01   2.745601015020000E-01   2.773194763960000E-01
   2.801065834700000E-01   2.829217014350000E-01   2.857651118060000E-01
   2.886370989270000E-01   2.915379499980000E-01   2.944679551070000E-01
   2.974274072560000E-01   3.004166023950000E-01   3.034358394440000E-01
   3.064854203290000E-01   3.095656500120000E-01   3.126768365190000E-01
   3.158192909690000E-01   3.189933276120000E-01   3.221992638530000E-01
   3.254374202890000E-01   3.287081207380000E-01   3.320116922740000E-01
   3.353484652550000E-01   3.387187733620000E-01   3.421229536290000E-01
   3.455613464760000E-01   3.490342957460000E-01   3.525421487370000E-01
   3.560852562360000E-01   3.596639725570000E-01   3.632786555750000E-01
   3.669296667620000E-01   3.706173712210000E-01   3.743421377260000E-01
   3.781043387570000E-01   3.819043505370000E-01   3.857425530700000E-01
   3.896193301800000E-01   3.935350695470000E-01   3.974901627490000E-01
   4.014850052990000E-01   4.055199966840000E-01   4.095955404070000E-01
   4.137120440250000E-01   4.178699191920000E-01   4.220695817000000E-01
   4.263114515170000E-01   4.305959528350000E-01   4.349235141060000E-01
   4.392945680920000E-01   4.437095519000000E-01   4.481689070340000E-01
   4.526730794310000E-01   4.572225195140000E-01   4.618176822300000E-01
   4.664590270990000E-01   4.711470182590000E-01   4.758821245140000E-01
   4.806648193780000E-01   4.854955811240000E-01   4.903748928330000E-01
   4.953032424400000E-01   5.002811227830000E-01   5.053090316560001E-01
   5.103874718540000E-01   5.155169512230000E-01   5.206979827180001E-01
   5.259310844450000E-01   5.312167797180000E-01   5.365555971120000E-01
   5.419480705130000E-01   5.473947391730000E-01   5.528961477620000E-01
   5.584528464280000E-01   5.640653908430000E-01   5.697343422670000E-01
   5.754602676010000E-01   5.812437394400000E-01   5.870853361380000E-01
   5.929856418590000E-01   5.989452466380000E-01   6.049647464410000E-01
   6.110447432230000E-01   6.171858449880000E-01   6.233886658520000E-01
   6.296538261030000E-01   6.359819522600000E-01   6.423736771430000E-01
   6.488296399290000E-01   6.553504862190001E-01   6.619368681040000E-01
   6.685894442280000E-01   6.753088798530000E-01   6.820958469290000E-01
   6.889510241580000E-01   6.958750970640000E-01   7.028687580590000E-01
   7.099327065160000E-01   7.170676488350000E-01   7.242742985160000E-01
   7.315533762310000E-01   7.389056098930000E-01   7.463317347320000E-01
   7.538324933660000E-01   7.614086358780000E-01   7.690609198880000E-01
   7.767901106310000E-01   7.845969810320000E-01   7.924823117849999E-01
   8.004468914300000E-01   8.084915164310000E-01   8.166169912570000E-01
   8.248241284630000E-01   8.331137487690000E-01   8.414866811440000E-01
   8.499437628890000E-01   8.584858397180000E-01   8.671137658460000E-01
   8.758284040740000E-01   8.846306258720000E-01   8.935213114700000E-01
   9.025013499430000E-01   9.115716393040000E-01   9.207330865880000E-01
   9.299866079480000E-01   9.393331287440000E-01   9.487735836360000E-01
   9.583089166760000E-01   9.679400814070001E-01   9.776680409530000E-01
   9.874937681170000E-01   9.974182454810000E-01   1.007442465500000E+00
   1.017567430610000E+00   1.027794153300000E+00   1.038123656270000E+00
   1.048556972470000E+00   1.059095145240000E+00   1.069739228410000E+00
   1.080490286390000E+00   1.091349394300000E+00   1.102317638060000E+00
   1.113396114510000E+00   1.124585931490000E+00   1.135888208000000E+00
   1.147304074280000E+00   1.158834671920000E+00   1.170481154000000E+00
   1.182244685160000E+00   1.194126441780000E+00   1.206127612040000E+00
   1.218249396070000E+00   1.230493006050000E+00   1.242859666360000E+00
   1.255350613670000E+00   1.267967097080000E+00   1.280710378270000E+00
   1.293581731550000E+00   1.306582444090000E+00   1.319713815970000E+00
   1.332977160320000E+00   1.346373803500000E+00   1.359905085180000E+00
   1.373572358510000E+00   1.387376990210000E+00   1.401320360770000E+00
   1.415403864540000E+00   1.429628909870000E+00   1.443996919280000E+00
   1.458509329590000E+00   1.473167592040000E+00   1.487973172490000E+00
   1.502927551490000E+00   1.518032224500000E+00   1.533288701990000E+00
   1.548698509630000E+00   1.564263188420000E+00   1.579984294830000E+00
   1.595863400980000E+00   1.611902094800000E+00   1.628101980180000E+00
   1.644464677110000E+00   1.660991821880000E+00   1.677685067210000E+00
   1.694546082450000E+00   1.711576553710000E+00   1.728778184060000E+00
   1.746152693660000E+00   1.763701819980000E+00   1.781427317960000E+00
   1.799330960160000E+00   1.817414536940000E+00   1.835679856700000E+00
   1.854128745970000E+00   1.872763049670000E+00   1.891584631230000E+00
   1.910595372820000E+00   1.929797175550000E+00   1.949191959600000E+00
   1.968781664480000E+00   1.988568249160000E+00   2.008553692320000E+00
   2.028739992520000E+00   2.049129168420000E+00   2.069723258940000E+00
   2.090524323510000E+00   2.111534442250000E+00   2.132755716200000E+00
   2.154190267500000E+00   2.175840239620000E+00   2.197707797580000E+00
   2.219795128140000E+00   2.242104440070000E+00   2.264637964320000E+00
   2.287397954240000E+00   2.310386685870000E+00   2.333606458090000E+00
   2.357059592910000E+00   2.380748435640000E+00   2.404675355210000E+00
   2.428842744310000E+00   2.453253019710000E+00   2.477908622460000E+00
   2.502812018130000E+00   2.527965697100000E+00   2.553372174740000E+00
   2.579033991720000E+00   2.604953714250000E+00   2.631133934330000E+00
   2.657577269990000E+00   2.684286365590000E+00   2.711263892070000E+00
   2.738512547190000E+00   2.766035055850000E+00   2.793834170320000E+00
   2.821912670540000E+00   2.850273364380000E+00   2.878919087920000E+00
   2.907852705780000E+00   2.937077111330000E+00   2.966595227040000E+00
   2.996410004740000E+00   3.026524425940000E+00   3.056941502110000E+00
   3.087664274970000E+00   3.118695816830000E+00   3.150039230870000E+00
   3.181697651470000E+00   3.213674244480000E+00   3.245972207590000E+00
   3.278594770620000E+00   3.311545195870000E+00   3.344826778390000E+00
   3.378442846380000E+00   3.412396761480000E+00   3.446691919090000E+00
   3.481331748760000E+00   3.516319714510000E+00   3.551659315160000E+00
   3.587354084710000E+00   3.623407592650000E+00   3.659823444370000E+00
   3.696605281480000E+00   3.733756782210000E+00   3.771281661720000E+00
   3.809183672540000E+00   3.847466604900000E+00   3.886134287130000E+00
   3.925190586030000E+00   3.964639407260000E+00   4.004484695730000E+00