<UPF version="2.0.1">
  <PP_INFO>
    Generated by new atomic code, or converted to UPF format
    Author: 
    Generation date: 
    Pseudopotential type: NC
    Element: O
    Functional:  SLA  PW   SCAN SCAN
    Suggested minimum cutoff for wavefunctions:   0. Ry
    Suggested minimum cutoff for charge density:   0. Ry
    The Pseudo was generated with a Non-Relativistic Calculation
    L component and cutoff radius for Local Potential:  0   0.0000
    Valence configuration: 
    nl pn  l   occ       Rcut    Rcut US       E pseu
    0S  1  0  2.00      0.000      0.000     0.000000
    0P  2  1  4.00      0.000      0.000     0.000000
    Generation configuration: not available.
  </PP_INFO>
    <!-- END OF HUMAN READABLE SECTION -->
  <PP_HEADER generated="Generated by new atomic code, or converted to UPF format" author="" date="" comment="" element="O" pseudo_type="NC" relativistic="no" is_ultrasoft="false" is_paw="false" is_coulomb="false" has_so="false" has_wfc="false" has_gipaw="false" paw_as_gipaw="false" core_correction="false" functional=" SLA  PW   SCAN SCAN" z_valence="6.00000000000000" total_psenergy="0.000000000000000E+000" wfc_cutoff="0.000000000000000E+000" rho_cutoff="0.000000000000000E+000" l_max="0" l_max_rho="0" l_local="0" mesh_size="1419" number_of_wfc="2" number_of_proj="1"/>
  <PP_MESH mesh="1419" dx="1.000000000000026E-002" xmin="-8.00000000000033" rmax="60.3739945441000" zmesh="8.00000000000000">
    <PP_R>
   4.193282848780000E-05   4.235426042040000E-05   4.277992781440000E-05
   4.320987323680000E-05   4.364413968250000E-05   4.408277057850000E-05
   4.452580978840000E-05   4.497330161630000E-05   4.542529081190000E-05
   4.588182257440000E-05   4.634294255740000E-05   4.680869687330000E-05
   4.727913209780000E-05   4.775429527500000E-05   4.823423392150000E-05
   4.871899603160000E-05   4.920863008190000E-05   4.970318503620000E-05
   5.020271035040000E-05   5.070725597750000E-05   5.121687237250000E-05
   5.173161049730000E-05   5.225152182640000E-05   5.277665835110000E-05
   5.330707258570000E-05   5.384281757200000E-05   5.438394688480000E-05
   5.493051463770000E-05   5.548257548790000E-05   5.604018464180000E-05
   5.660339786080000E-05   5.717227146690000E-05   5.774686234770000E-05
   5.832722796290000E-05   5.891342634950000E-05   5.950551612780000E-05
   6.010355650730000E-05   6.070760729250000E-05   6.131772888910001E-05
   6.193398230970000E-05   6.255642918010000E-05   6.318513174550001E-05
   6.382015287680000E-05   6.446155607660000E-05   6.510940548560000E-05
   6.576376588950000E-05   6.642470272479999E-05   6.709228208570000E-05
   6.776657073070001E-05   6.844763608930000E-05   6.913554626850001E-05
   6.983037005990000E-05   7.053217694660000E-05   7.124103710970000E-05
   7.195702143590000E-05   7.268020152420000E-05   7.341064969320000E-05
   7.414843898840000E-05   7.489364318930000E-05   7.564633681690000E-05
   7.640659514119999E-05   7.717449418870000E-05   7.795011074990000E-05
   7.873352238720000E-05   7.952480744230000E-05   8.032404504440000E-05
   8.113131511800001E-05   8.194669839070000E-05   8.277027640150000E-05
   8.360213150900000E-05   8.444234689920000E-05   8.529100659450000E-05
   8.614819546160001E-05   8.701399922000000E-05   8.788850445080000E-05
   8.877179860529999E-05   8.966397001370000E-05   9.056510789369999E-05
   9.147530236010000E-05   9.239464443290000E-05   9.332322604710000E-05
   9.426114006170000E-05   9.520848026889999E-05   9.616534140340000E-05
   9.713181915220000E-05   9.810801016390000E-05   9.909401205829999E-05
   1.000899234370000E-04   1.010958438910000E-04   1.021118740130000E-04
   1.031381154080000E-04   1.041746707010000E-04   1.052216435470000E-04
   1.062791386460000E-04   1.073472617470000E-04   1.084261196630000E-04
   1.095158202820000E-04   1.106164725740000E-04   1.117281866060000E-04
   1.128510735500000E-04   1.139852456940000E-04   1.151308164590000E-04
   1.162879004010000E-04   1.174566132300000E-04   1.186370718180000E-04
   1.198293942120000E-04   1.210336996450000E-04   1.222501085490000E-04
   1.234787425660000E-04   1.247197245610000E-04   1.259731786310000E-04
   1.272392301240000E-04   1.285180056470000E-04   1.298096330770000E-04
   1.311142415780000E-04   1.324319616130000E-04   1.337629249550000E-04
   1.351072647000000E-04   1.364651152850000E-04   1.378366124950000E-04
   1.392218934810000E-04   1.406210967720000E-04   1.420343622900000E-04
   1.434618313630000E-04   1.449036467380000E-04   1.463599525990000E-04
   1.478308945770000E-04   1.493166197680000E-04   1.508172767450000E-04
   1.523330155750000E-04   1.538639878340000E-04   1.554103466200000E-04
   1.569722465700000E-04   1.585498438760000E-04   1.601432962980000E-04
   1.617527631830000E-04   1.633784054800000E-04   1.650203857530000E-04
   1.666788682020000E-04   1.683540186760000E-04   1.700460046930000E-04
   1.717549954530000E-04   1.734811618540000E-04   1.752246765170000E-04
   1.769857137930000E-04   1.787644497880000E-04   1.805610623780000E-04
   1.823757312230000E-04   1.842086377940000E-04   1.860599653820000E-04
   1.879298991220000E-04   1.898186260080000E-04   1.917263349160000E-04
   1.936532166160000E-04   1.955994637990000E-04   1.975652710920000E-04
   1.995508350770000E-04   2.015563543110000E-04   2.035820293490000E-04
   2.056280627590000E-04   2.076946591470000E-04   2.097820251740000E-04
   2.118903695780000E-04   2.140199031960000E-04   2.161708389820000E-04
   2.183433920330000E-04   2.205377796040000E-04   2.227542211380000E-04
   2.249929382790000E-04   2.272541549010000E-04   2.295380971290000E-04
   2.318449933570000E-04   2.341750742780000E-04   2.365285729010000E-04
   2.389057245790000E-04   2.413067670280000E-04   2.437319403560000E-04
   2.461814870800000E-04   2.486556521580000E-04   2.511546830090000E-04
   2.536788295370000E-04   2.562283441600000E-04   2.588034818300000E-04
   2.614045000640000E-04   2.640316589670000E-04   2.666852212550000E-04
   2.693654522870000E-04   2.720726200890000E-04   2.748069953800000E-04
   2.775688516000000E-04   2.803584649360000E-04   2.831761143520000E-04
   2.860220816150000E-04   2.888966513250000E-04   2.918001109410000E-04
   2.947327508110000E-04   2.976948642020000E-04   3.006867473270000E-04
   3.037086993780000E-04   3.067610225520000E-04   3.098440220830000E-04
   3.129580062750000E-04   3.161032865290000E-04   3.192801773740000E-04
   3.224889965030000E-04   3.257300648010000E-04   3.290037063770000E-04
   3.323102485970000E-04   3.356500221190000E-04   3.390233609230000E-04
   3.424306023460000E-04   3.458720871140000E-04   3.493481593800000E-04
   3.528591667520000E-04   3.564054603350000E-04   3.599873947610000E-04
   3.636053282270000E-04   3.672596225280000E-04   3.709506430980000E-04
   3.746787590410000E-04   3.784443431720000E-04   3.822477720530000E-04
   3.860894260300000E-04   3.899696892710000E-04   3.938889498060000E-04
   3.978475995640000E-04   4.018460344130000E-04   4.058846542010000E-04
   4.099638627930000E-04   4.140840681120000E-04   4.182456821840000E-04
   4.224491211720000E-04   4.266948054240000E-04   4.309831595130000E-04
   4.353146122760000E-04   4.396895968640000E-04   4.441085507780000E-04
   4.485719159160000E-04   4.530801386210000E-04   4.576336697160000E-04
   4.622329645600000E-04   4.668784830860000E-04   4.715706898490000E-04
   4.763100540740000E-04   4.810970497010000E-04   4.859321554350000E-04
   4.908158547880000E-04   4.957486361360000E-04   5.007309927610000E-04
   5.057634229029999E-04   5.108464298080000E-04   5.159805217820000E-04
   5.211662122380000E-04   5.264040197500000E-04   5.316944681020000E-04
   5.370380863440000E-04   5.424354088420000E-04   5.478869753340000E-04
   5.533933309790000E-04   5.589550264190000E-04   5.645726178270000E-04
   5.702466669670000E-04   5.759777412490000E-04   5.817664137850000E-04
   5.876132634480000E-04   5.935188749260000E-04   5.994838387870000E-04
   6.055087515310000E-04   6.115942156550000E-04   6.177408397100000E-04
   6.239492383640000E-04   6.302200324609999E-04   6.365538490870000E-04
   6.429513216290000E-04   6.494130898380000E-04   6.559397998980000E-04
   6.625321044840000E-04   6.691906628320000E-04   6.759161408050000E-04
   6.827092109550000E-04   6.895705525950000E-04   6.965008518650001E-04
   7.035008018010000E-04   7.105711024020000E-04   7.177124607070000E-04
   7.249255908550000E-04   7.322112141670000E-04   7.395700592100000E-04
   7.470028618760000E-04   7.545103654500000E-04   7.620933206890000E-04
   7.697524858960000E-04   7.774886269930000E-04   7.853025176000000E-04
   7.931949391140000E-04   8.011666807820000E-04   8.092185397860000E-04
   8.173513213190000E-04   8.255658386640000E-04   8.338629132820000E-04
   8.422433748860000E-04   8.507080615290000E-04   8.592578196870000E-04
   8.678935043430000E-04   8.766159790730001E-04   8.854261161320000E-04
   8.943247965390000E-04   9.033129101720000E-04   9.123913558490000E-04
   9.215610414210000E-04   9.308228838660000E-04   9.401778093740001E-04
   9.496267534470000E-04   9.591706609870000E-04   9.688104863920000E-04
   9.785471936530001E-04   9.883817564490000E-04   9.983151582440000E-04
   1.008348392390000E-03   1.018482462210000E-03   1.028718381130000E-03
   1.039057172740000E-03   1.049499870940000E-03   1.060047519990000E-03
   1.070701174690000E-03   1.081461900390000E-03   1.092330773180000E-03
   1.103308879970000E-03   1.114397318550000E-03   1.125597197800000E-03
   1.136909637710000E-03   1.148335769530000E-03   1.159876735880000E-03
   1.171533690880000E-03   1.183307800210000E-03   1.195200241320000E-03
   1.207212203440000E-03   1.219344887790000E-03   1.231599507650000E-03
   1.243977288480000E-03   1.256479468080000E-03   1.269107296670000E-03
   1.281862037050000E-03   1.294744964700000E-03   1.307757367930000E-03
   1.320900547980000E-03   1.334175819190000E-03   1.347584509090000E-03
   1.361127958570000E-03   1.374807521980000E-03   1.388624567280000E-03
   1.402580476200000E-03   1.416676644330000E-03   1.430914481310000E-03
   1.445295410930000E-03   1.459820871300000E-03   1.474492314970000E-03
   1.489311209100000E-03   1.504279035590000E-03   1.519397291240000E-03
   1.534667487880000E-03   1.550091152560000E-03   1.565669827630000E-03
   1.581405071000000E-03   1.597298456190000E-03   1.613351572560000E-03
   1.629566025430000E-03   1.645943436260000E-03   1.662485442810000E-03
   1.679193699280000E-03   1.696069876530000E-03   1.713115662170000E-03
   1.730332760810000E-03   1.747722894170000E-03   1.765287801270000E-03
   1.783029238620000E-03   1.800948980390000E-03   1.819048818550000E-03
   1.837330563110000E-03   1.855796042260000E-03   1.874447102560000E-03
   1.893285609130000E-03   1.912313445840000E-03   1.931532515490000E-03
   1.950944740000000E-03   1.970552060610000E-03   1.990356438060000E-03
   2.010359852820000E-03   2.030564305240000E-03   2.050971815790000E-03
   2.071584425220000E-03   2.092404194820000E-03   2.113433206590000E-03
   2.134673563440000E-03   2.156127389420000E-03   2.177796829940000E-03
   2.199684051950000E-03   2.221791244210000E-03   2.244120617440000E-03
   2.266674404600000E-03   2.289454861090000E-03   2.312464264980000E-03
   2.335704917220000E-03   2.359179141890000E-03   2.382889286450000E-03
   2.406837721920000E-03   2.431026843170000E-03   2.455459069130000E-03
   2.480136843050000E-03   2.505062632710000E-03   2.530238930730000E-03
   2.555668254740000E-03   2.581353147710000E-03   2.607296178150000E-03
   2.633499940380000E-03   2.659967054800000E-03   2.686700168140000E-03
   2.713701953730000E-03   2.740975111780000E-03   2.768522369630000E-03
   2.796346482020000E-03   2.824450231390000E-03   2.852836428140000E-03
   2.881507910900000E-03   2.910467546860000E-03   2.939718232000000E-03
   2.969262891410000E-03   2.999104479590000E-03   3.029245980710000E-03
   3.059690408960000E-03   3.090440808790000E-03   3.121500255280000E-03
   3.152871854400000E-03   3.184558743340000E-03   3.216564090790000E-03
   3.248891097340000E-03   3.281542995710000E-03   3.314523051110000E-03
   3.347834561580000E-03   3.381480858290000E-03   3.415465305910000E-03
   3.449791302910000E-03   3.484462281910000E-03   3.519481710040000E-03
   3.554853089270000E-03   3.590579956780000E-03   3.626665885270000E-03
   3.663114483380000E-03   3.699929395990000E-03   3.737114304620000E-03
   3.774672927790000E-03   3.812609021400000E-03   3.850926379090000E-03
   3.889628832630000E-03   3.928720252300000E-03   3.968204547260000E-03
   4.008085665980000E-03   4.048367596610000E-03   4.089054367380000E-03
   4.130150046990000E-03   4.171658745040000E-03   4.213584612450000E-03
   4.255931841820000E-03   4.298704667930000E-03   4.341907368090000E-03
   4.385544262610000E-03   4.429619715200000E-03   4.474138133460000E-03
   4.519103969260000E-03   4.564521719220000E-03   4.610395925160000E-03
   4.656731174530000E-03   4.703532100900000E-03   4.750803384400000E-03
   4.798549752190000E-03   4.846775978970000E-03   4.895486887370000E-03
   4.944687348550000E-03   4.994382282580000E-03   5.044576659000000E-03
   5.095275497300000E-03   5.146483867380000E-03   5.198206890150000E-03
   5.250449737930000E-03   5.303217635060000E-03   5.356515858380000E-03
   5.410349737750000E-03   5.464724656590000E-03   5.519646052460000E-03
   5.575119417530000E-03   5.631150299190000E-03   5.687744300580000E-03
   5.744907081130000E-03   5.802644357180000E-03   5.860961902500000E-03
   5.919865548890000E-03   5.979361186770000E-03   6.039454765760000E-03
   6.100152295250000E-03   6.161459845060000E-03   6.223383545980000E-03
   6.285929590450000E-03   6.349104233110000E-03   6.412913791490000E-03
   6.477364646590000E-03   6.542463243550000E-03   6.608216092290000E-03
   6.674629768150000E-03   6.741710912540000E-03   6.809466233650000E-03
   6.877902507050000E-03   6.947026576440000E-03   7.016845354270000E-03
   7.087365822480000E-03   7.158595033180000E-03   7.230540109350000E-03
   7.303208245560000E-03   7.376606708680000E-03   7.450742838620000E-03
   7.525624049050000E-03   7.601257828150000E-03   7.677651739380000E-03
   7.754813422170000E-03   7.832750592769999E-03   7.911471044960001E-03
   7.990982650840001E-03   8.071293361650000E-03   8.152411208520000E-03
   8.234344303300001E-03   8.317100839380000E-03   8.400689092470000E-03
   8.485117421470000E-03   8.570394269280000E-03   8.656528163670000E-03
   8.743527718079999E-03   8.831401632549999E-03   8.920158694550000E-03
   9.009807779850000E-03   9.100357853430000E-03   9.191817970380000E-03
   9.284197276790000E-03   9.377505010670001E-03   9.471750502859999E-03
   9.566943177990001E-03   9.663092555410001E-03   9.760208250140000E-03
   9.858299973830000E-03   9.957377535739999E-03   1.005745084370000E-02
   1.015852990510000E-02   1.026062482800000E-02   1.036374582190000E-02
   1.046790319900000E-02   1.057310737520000E-02   1.067936887090000E-02
   1.078669831240000E-02   1.089510643270000E-02   1.100460407280000E-02
   1.111520218240000E-02   1.122691182150000E-02   1.133974416120000E-02
   1.145371048470000E-02   1.156882218880000E-02   1.168509078480000E-02
   1.180252789950000E-02   1.192114527690000E-02   1.204095477880000E-02
   1.216196838620000E-02   1.228419820050000E-02   1.240765644500000E-02
   1.253235546540000E-02   1.265830773170000E-02   1.278552583940000E-02
   1.291402251040000E-02   1.304381059430000E-02   1.317490307020000E-02
   1.330731304740000E-02   1.344105376700000E-02   1.357613860310000E-02
   1.371258106440000E-02   1.385039479530000E-02   1.398959357720000E-02
   1.413019133010000E-02   1.427220211390000E-02   1.441564012980000E-02
   1.456051972170000E-02   1.470685537770000E-02   1.485466173160000E-02
   1.500395356390000E-02   1.515474580420000E-02   1.530705353160000E-02
   1.546089197720000E-02   1.561627652480000E-02   1.577322271310000E-02
   1.593174623690000E-02   1.609186294850000E-02   1.625358885980000E-02
   1.641694014360000E-02   1.658193313500000E-02   1.674858433360000E-02
   1.691691040460000E-02   1.708692818070000E-02   1.725865466390000E-02
   1.743210702690000E-02   1.760730261510000E-02   1.778425894830000E-02
   1.796299372220000E-02   1.814352481050000E-02   1.832587026630000E-02
   1.851004832440000E-02   1.869607740280000E-02   1.888397610450000E-02
   1.907376321960000E-02   1.926545772690000E-02   1.945907879600000E-02
   1.965464578920000E-02   1.985217826340000E-02   2.005169597190000E-02
   2.025321886670000E-02   2.045676710030000E-02   2.066236102770000E-02
   2.087002120840000E-02   2.107976840860000E-02   2.129162360320000E-02
   2.150560797790000E-02   2.172174293130000E-02   2.194005007710000E-02
   2.216055124620000E-02   2.238326848890000E-02   2.260822407710000E-02
   2.283544050660000E-02   2.306494049910000E-02   2.329674700490000E-02
   2.353088320480000E-02   2.376737251270000E-02   2.400623857760000E-02
   2.424750528640000E-02   2.449119676590000E-02   2.473733738550000E-02
   2.498595175940000E-02   2.523706474930000E-02   2.549070146680000E-02
   2.574688727560000E-02   2.600564779460000E-02   2.626700890010000E-02
   2.653099672830000E-02   2.679763767840000E-02   2.706695841450000E-02
   2.733898586900000E-02   2.761374724490000E-02   2.789127001860000E-02
   2.817158194240000E-02   2.845471104800000E-02   2.874068564830000E-02
   2.902953434120000E-02   2.932128601170000E-02   2.961596983530000E-02
   2.991361528050000E-02   3.021425211210000E-02   3.051791039420000E-02
   3.082462049270000E-02   3.113441307900000E-02   3.144731913250000E-02
   3.176336994410000E-02   3.208259711920000E-02   3.240503258070000E-02
   3.273070857250000E-02   3.305965766250000E-02   3.339191274570000E-02
   3.372750704810000E-02   3.406647412930000E-02   3.440884788620000E-02
   3.475466255660000E-02   3.510395272230000E-02   3.545675331250000E-02
   3.581309960750000E-02   3.617302724240000E-02   3.653657221010000E-02
   3.690377086550000E-02   3.727465992870000E-02   3.764927648900000E-02
   3.802765800830000E-02   3.840984232510000E-02   3.879586765820000E-02
   3.918577261030000E-02   3.957959617240000E-02   3.997737772700000E-02
   4.037915705280000E-02   4.078497432790000E-02   4.119487013440000E-02
   4.160888546230000E-02   4.202706171330000E-02   4.244944070560000E-02
   4.287606467730000E-02   4.330697629130000E-02   4.374221863890000E-02
   4.418183524480000E-02   4.462587007110000E-02   4.507436752160000E-02
   4.552737244640000E-02   4.598493014640000E-02   4.644708637780000E-02
   4.691388735640000E-02   4.738537976290000E-02   4.786161074690000E-02
   4.834262793180000E-02   4.882847941980000E-02   4.931921379650000E-02
   4.981488013560000E-02   5.031552800420000E-02   5.082120746760000E-02
   5.133196909400000E-02   5.184786396020000E-02   5.236894365600000E-02
   5.289526028970000E-02   5.342686649360000E-02   5.396381542860000E-02
   5.450616079020000E-02   5.505395681320000E-02   5.560725827790000E-02
   5.616612051470000E-02   5.673059941030000E-02   5.730075141320000E-02
   5.787663353890000E-02   5.845830337620000E-02   5.904581909260000E-02
   5.963923944010000E-02   6.023862376130000E-02   6.084403199500000E-02
   6.145552468260000E-02   6.207316297390000E-02   6.269700863329999E-02
   6.332712404570000E-02   6.396357222330000E-02   6.460641681150001E-02
   6.525572209510000E-02   6.591155300540000E-02   6.657397512590001E-02
   6.724305469930000E-02   6.791885863430000E-02   6.860145451180000E-02
   6.929091059180000E-02   6.998729582070000E-02   7.069067983740000E-02
   7.140113298110000E-02   7.211872629759999E-02   7.284353154669999E-02
   7.357562120980000E-02   7.431506849630000E-02   7.506194735150000E-02
   7.581633246409999E-02   7.657829927310000E-02   7.734792397580000E-02
   7.812528353530000E-02   7.891045568839999E-02   7.970351895270000E-02
   8.050455263540000E-02   8.131363684039999E-02   8.213085247690000E-02
   8.295628126700000E-02   8.379000575450000E-02   8.463210931230000E-02
   8.548267615150000E-02   8.634179132970000E-02   8.720954075890000E-02
   8.808601121480000E-02   8.897129034530001E-02   8.986546667900000E-02
   9.076862963420000E-02   9.168086952800000E-02   9.260227758520000E-02
   9.353294594729999E-02   9.447296768200000E-02   9.542243679210000E-02
   9.638144822540000E-02   9.735009788390001E-02   9.832848263330000E-02
   9.931670031290001E-02   1.003148497450000E-01   1.013230307460000E-01
   1.023413441350000E-01   1.033698917430000E-01   1.044087764260000E-01
   1.054581020750000E-01   1.065179736210000E-01   1.075884970530000E-01
   1.086697794250000E-01   1.097619288650000E-01   1.108650545900000E-01
   1.119792669120000E-01   1.131046772540000E-01   1.142413981590000E-01
   1.153895432980000E-01   1.165492274880000E-01   1.177205666980000E-01
   1.189036780630000E-01   1.200986798940000E-01   1.213056916940000E-01
   1.225248341630000E-01   1.237562292190000E-01   1.250000000000000E-01
   1.262562708860000E-01   1.275251675030000E-01   1.288068167440000E-01
   1.301013467740000E-01   1.314088870470000E-01   1.327295683180000E-01
   1.340635226570000E-01   1.354108834590000E-01   1.367717854630000E-01
   1.381463647590000E-01   1.395347588070000E-01   1.409371064470000E-01
   1.423535479160000E-01   1.437842248570000E-01   1.452292803410000E-01
   1.466888588740000E-01   1.481631064150000E-01   1.496521703900000E-01
   1.511561997070000E-01   1.526753447700000E-01   1.542097574950000E-01
   1.557595913230000E-01   1.573250012410000E-01   1.589061437900000E-01
   1.605031770860000E-01   1.621162608330000E-01   1.637455563420000E-01
   1.653912265420000E-01   1.670534360030000E-01   1.687323509470000E-01
   1.704281392670000E-01   1.721409705420000E-01   1.738710160580000E-01
   1.756184488200000E-01   1.773834435740000E-01   1.791661768200000E-01
   1.809668268330000E-01   1.827855736790000E-01   1.846225992350000E-01
   1.864780872050000E-01   1.883522231390000E-01   1.902451944520000E-01
   1.921571904440000E-01   1.940884023140000E-01   1.960390231860000E-01
   1.980092481240000E-01   1.999992741520000E-01   2.020093002740000E-01
   2.040395274940000E-01   2.060901588380000E-01   2.081613993680000E-01
   2.102534562120000E-01   2.123665385770000E-01   2.145008577730000E-01
   2.166566272330000E-01   2.188340625370000E-01   2.210333814290000E-01
   2.232548038440000E-01   2.254985519250000E-01   2.277648500490000E-01
   2.300539248480000E-01   2.323660052310000E-01   2.347013224080000E-01
   2.370601099130000E-01   2.394426036270000E-01   2.418490418000000E-01
   2.442796650790000E-01   2.467347165290000E-01   2.492144416550000E-01
   2.517190884340000E-01   2.542489073310000E-01   2.568041513300000E-01
   2.593850759590000E-01   2.619919393120000E-01   2.646250020770000E-01
   2.672845275620000E-01   2.699707817230000E-01   2.726840331870000E-01
   2.754245532820000E-01   2.781926160620000E-01   2.809884983350000E-01
   2.838124796920000E-01   2.866648425330000E-01   2.895458720980000E-01
   2.924558564910000E-01   2.953950867130000E-01   2.983638566910000E-01
   3.013624633020000E-01   3.043912064110000E-01   3.074503888950000E-01
   3.105403166730000E-01   3.136612987420000E-01   3.168136472020000E-01
   3.199976772910000E-01   3.232137074140000E-01   3.264620591780000E-01
   3.297430574190000E-01   3.330570302410000E-01   3.364043090440000E-01
   3.397852285570000E-01   3.432001268770000E-01   3.466493454960000E-01
   3.501332293370000E-01   3.536521267940000E-01   3.572063897580000E-01
   3.607963736580000E-01   3.644224374970000E-01   3.680849438830000E-01
   3.717842590700000E-01   3.755207529930000E-01   3.792947993040000E-01
   3.831067754120000E-01   3.869570625160000E-01   3.908460456480000E-01
   3.947741137110000E-01   3.987416595150000E-01   4.027490798160000E-01
   4.067967753610000E-01   4.108851509230000E-01   4.150146153420000E-01
   4.191855815690000E-01   4.233984667030000E-01   4.276536920360000E-01
   4.319516830950000E-01   4.362928696830000E-01   4.406776859210000E-01
   4.451065702940000E-01   4.495799656960000E-01   4.540983194690000E-01
   4.586620834520000E-01   4.632717140260000E-01   4.679276721580000E-01
   4.726304234460000E-01   4.773804381710000E-01   4.821781913370000E-01
   4.870241627240000E-01   4.919188369340000E-01   4.968627034370000E-01
   5.018562566240000E-01   5.068999958560000E-01   5.119944255090000E-01
   5.171400550310000E-01   5.223373989900000E-01   5.275869771250000E-01
   5.328893143960000E-01   5.382449410430000E-01   5.436543926330000E-01
   5.491182101149999E-01   5.546369398750000E-01   5.602111337920000E-01
   5.658413492890000E-01   5.715281493930000E-01   5.772721027870000E-01
   5.830737838740000E-01   5.889337728239999E-01   5.948526556420000E-01
   6.008310242220000E-01   6.068694764050000E-01   6.129686160409999E-01
   6.191290530490000E-01   6.253514034790000E-01   6.316362895700000E-01
   6.379843398170000E-01   6.443961890290000E-01   6.508724783970000E-01
   6.574138555560000E-01   6.640209746480000E-01   6.706944963900000E-01
   6.774350881410000E-01   6.842434239660000E-01   6.911201847030000E-01
   6.980660580350000E-01   7.050817385540000E-01   7.121679278340000E-01
   7.193253345010000E-01   7.265546743000000E-01   7.338566701730000E-01
   7.412320523240000E-01   7.486815582980000E-01   7.562059330520000E-01
   7.638059290290000E-01   7.714823062350000E-01   7.792358323160000E-01
   7.870672826280000E-01   7.949774403250000E-01   8.029670964290000E-01
   8.110370499110000E-01   8.191881077740000E-01   8.274210851300000E-01
   8.357368052850001E-01   8.441360998160000E-01   8.526198086610000E-01
   8.611887801980000E-01   8.698438713300000E-01   8.785859475740000E-01
   8.874158831450000E-01   8.963345610430000E-01   9.053428731449999E-01
   9.144417202889999E-01   9.236320123660000E-01   9.329146684150000E-01
   9.422906167080000E-01   9.517607948470000E-01   9.613261498600000E-01
   9.709876382880001E-01   9.807462262900000E-01   9.906028897310000E-01
   1.000558614290000E+00   1.010614395540000E+00   1.020771239070000E+00
   1.031030160580000E+00   1.041392185960000E+00   1.051858351430000E+00
   1.062429703610000E+00   1.073107299650000E+00   1.083892207310000E+00
   1.094785505090000E+00   1.105788282340000E+00   1.116901639340000E+00
   1.128126687430000E+00   1.139464549130000E+00   1.150916358240000E+00
   1.162483259940000E+00   1.174166410930000E+00   1.185966979540000E+00
   1.197886145850000E+00   1.209925101760000E+00   1.222085051190000E+00
   1.234367210150000E+00   1.246772806850000E+00   1.259303081880000E+00
   1.271959288260000E+00   1.284742691630000E+00   1.297654570340000E+00
   1.310696215590000E+00   1.323868931550000E+00   1.337174035510000E+00
   1.350612857990000E+00   1.364186742880000E+00   1.377897047580000E+00
   1.391745143130000E+00   1.405732414360000E+00   1.419860260000000E+00
   1.434130092850000E+00   1.448543339900000E+00   1.463101442500000E+00
   1.477805856460000E+00   1.492658052230000E+00   1.507659515060000E+00
   1.522811745090000E+00   1.538116257560000E+00   1.553574582950000E+00
   1.569188267080000E+00   1.584958871350000E+00   1.600887972830000E+00
   1.616977164440000E+00   1.633228055120000E+00   1.649642269960000E+00
   1.666221450400000E+00   1.682967254380000E+00   1.699881356480000E+00
   1.716965448130000E+00   1.734221237770000E+00   1.751650450970000E+00
   1.769254830670000E+00   1.787036137330000E+00   1.804996149100000E+00
   1.823136661990000E+00   1.841459490060000E+00   1.859966465610000E+00
   1.878659439360000E+00   1.897540280620000E+00   1.916610877490000E+00
   1.935873137040000E+00   1.955328985520000E+00   1.974980368530000E+00
   1.994829251220000E+00   2.014877618500000E+00   2.035127475220000E+00
   2.055580846390000E+00   2.076239777350000E+00   2.097106334020000E+00
   2.118182603070000E+00   2.139470692140000E+00   2.160972730070000E+00
   2.182690867070000E+00   2.204627274980000E+00   2.226784147450000E+00
   2.249163700190000E+00   2.271768171180000E+00   2.294599820880000E+00
   2.317660932470000E+00   2.340953812080000E+00   2.364480789030000E+00
   2.388244216030000E+00   2.412246469440000E+00   2.436489949500000E+00
   2.460977080600000E+00   2.485710311450000E+00   2.510692115400000E+00
   2.535924990660000E+00   2.561411460520000E+00   2.587154073670000E+00
   2.613155404390000E+00   2.639418052820000E+00   2.665944645250000E+00
   2.692737834380000E+00   2.719800299520000E+00   2.747134746970000E+00
   2.774743910180000E+00   2.802630550090000E+00   2.830797455400000E+00
   2.859247442810000E+00   2.887983357340000E+00   2.917008072620000E+00
   2.946324491130000E+00   2.975935544550000E+00   3.005844194010000E+00
   3.036053430390000E+00   3.066566274640000E+00   3.097385778070000E+00
   3.128515022670000E+00   3.159957121370000E+00   3.191715218420000E+00
   3.223792489650000E+00   3.256192142810000E+00   3.288917417910000E+00
   3.321971587480000E+00   3.355357956990000E+00   3.389079865080000E+00
   3.423140683990000E+00   3.457543819810000E+00   3.492292712900000E+00
   3.527390838180000E+00   3.562841705470000E+00   3.598648859910000E+00
   3.634815882220000E+00   3.671346389160000E+00   3.708244033800000E+00
   3.745512505920000E+00   3.783155532430000E+00   3.821176877630000E+00
   3.859580343710000E+00   3.898369771040000E+00   3.937549038590000E+00
   3.977122064330000E+00   4.017092805590000E+00   4.057465259480000E+00
   4.098243463280000E+00   4.139431494840000E+00   4.181033472990000E+00
   4.223053557980000E+00   4.265495951840000E+00   4.308364898860000E+00
   4.351664685950000E+00   4.395399643140000E+00   4.439574143950000E+00
   4.484192605880000E+00   4.529259490810000E+00   4.574779305460000E+00
   4.620756601850000E+00   4.667195977760000E+00   4.714102077150000E+00
   4.761479590670000E+00   4.809333256130000E+00   4.857667858920000E+00
   4.906488232540000E+00   4.955799259070000E+00   5.005605869660000E+00