<UPF version="2.0.1">
  <PP_INFO>
    Generated by new atomic code, or converted to UPF format
    Author: 
    Generation date: 
    Pseudopotential type: NC
    Element: P
    Functional:  SLA  PW   SCAN SCAN
    Suggested minimum cutoff for wavefunctions:   0. Ry
    Suggested minimum cutoff for charge density:   0. Ry
    The Pseudo was generated with a Non-Relativistic Calculation
    L component and cutoff radius for Local Potential:  0   0.0000
    Valence configuration: 
    nl pn  l   occ       Rcut    Rcut US       E pseu
    3S  1  0  2.00      0.000      0.000     0.000000
    3P  2  1  3.00      0.000      0.000     0.000000
    Generation configuration: not available.
  </PP_INFO>
    <!-- END OF HUMAN READABLE SECTION -->
  <PP_HEADER generated="Generated by new atomic code, or converted to UPF format" author="" date="" comment="" element="P" pseudo_type="NC" relativistic="no" is_ultrasoft="false" is_paw="false" is_coulomb="false" has_so="false" has_wfc="false" has_gipaw="false" paw_as_gipaw="false" core_correction="false" functional=" SLA  PW   SCAN SCAN" z_valence="5.00000000000000" total_psenergy="0.000000000000000E+000" wfc_cutoff="0.000000000000000E+000" rho_cutoff="0.000000000000000E+000" l_max="0" l_max_rho="0" l_local="0" mesh_size="1481" number_of_wfc="2" number_of_proj="1"/>
  <PP_MESH mesh="1481" dx="9.999999999999711E-003" xmin="-8.00000000000004" rmax="59.8564861100000" zmesh="15.0000000000000">
    <PP_R>
   2.236417519350000E-05   2.258893889090000E-05   2.281596150100000E-05
   2.304526572630000E-05   2.327687449730000E-05   2.351081097520000E-05
   2.374709855380000E-05   2.398576086200000E-05   2.422682176630000E-05
   2.447030537300000E-05   2.471623603060000E-05   2.496463833240000E-05
   2.521553711880000E-05   2.546895748000000E-05   2.572492475810000E-05
   2.598346455020000E-05   2.624460271030000E-05   2.650836535260000E-05
   2.677477885360000E-05   2.704386985470000E-05   2.731566526530000E-05
   2.759019226530000E-05   2.786747830740000E-05   2.814755112060000E-05
   2.843043871240000E-05   2.871616937170000E-05   2.900477167190000E-05
   2.929627447350000E-05   2.959070692690000E-05   2.988809847560000E-05
   3.018847885910000E-05   3.049187811570000E-05   3.079832658540000E-05
   3.110785491350000E-05   3.142049405310000E-05   3.173627526820000E-05
   3.205523013720000E-05   3.237739055600000E-05   3.270278874090000E-05
   3.303145723180000E-05   3.336342889600000E-05   3.369873693090000E-05
   3.403741486760000E-05   3.437949657420000E-05   3.472501625900000E-05
   3.507400847440000E-05   3.542650811990000E-05   3.578255044570000E-05
   3.614217105640000E-05   3.650540591430000E-05   3.687229134320000E-05
   3.724286403200000E-05   3.761716103820000E-05   3.799521979180000E-05
   3.837707809920000E-05   3.876277414630000E-05   3.915234650310000E-05
   3.954583412720000E-05   3.994327636760000E-05   4.034471296900000E-05
   4.075018407530000E-05   4.115973023400000E-05   4.157339240000000E-05
   4.199121193980000E-05   4.241323063590000E-05   4.283949069040000E-05
   4.327003472960000E-05   4.370490580840000E-05   4.414414741420000E-05
   4.458780347150000E-05   4.503591834630000E-05   4.548853685040000E-05
   4.594570424620000E-05   4.640746625070000E-05   4.687386904040000E-05
   4.734495925620000E-05   4.782078400730000E-05   4.830139087670000E-05
   4.878682792540000E-05   4.927714369750000E-05   4.977238722510000E-05
   5.027260803290000E-05   5.077785614340000E-05   5.128818208180000E-05
   5.180363688120000E-05   5.232427208740000E-05   5.285013976440000E-05
   5.338129249950000E-05   5.391778340830000E-05   5.445966614030000E-05
   5.500699488440000E-05   5.555982437380000E-05   5.611820989190000E-05
   5.668220727780000E-05   5.725187293160000E-05   5.782726382050000E-05
   5.840843748390000E-05   5.899545203970000E-05   5.958836618990000E-05
   6.018723922640000E-05   6.079213103700000E-05   6.140310211130000E-05
   6.202021354699999E-05   6.264352705570000E-05   6.327310496940000E-05
   6.390901024630000E-05   6.455130647740000E-05   6.520005789300000E-05
   6.585532936870000E-05   6.651718643230000E-05   6.718569526990000E-05
   6.786092273300000E-05   6.854293634500000E-05   6.923180430770001E-05
   6.992759550850000E-05   7.063037952720000E-05   7.134022664260000E-05
   7.205720784020000E-05   7.278139481859999E-05   7.351285999720000E-05
   7.425167652300001E-05   7.499791827830000E-05   7.575165988800000E-05
   7.651297672680000E-05   7.728194492700000E-05   7.805864138610000E-05
   7.884314377440000E-05   7.963553054270000E-05   8.043588093050000E-05
   8.124427497349999E-05   8.206079351160000E-05   8.288551819740001E-05
   8.371853150420000E-05   8.455991673380000E-05   8.540975802559999E-05
   8.626814036440000E-05   8.713514958910000E-05   8.801087240140000E-05
   8.889539637420000E-05   8.978880996080000E-05   9.069120250320000E-05
   9.160266424140000E-05   9.252328632240000E-05   9.345316080910001E-05
   9.439238068980000E-05   9.534103988720000E-05   9.629923326800000E-05
   9.726705665249999E-05   9.824460682360000E-05   9.923198153730000E-05
   1.002292795320000E-04   1.012366005380000E-04   1.022540452880000E-04
   1.032817155280000E-04   1.043197140260000E-04   1.053681445820000E-04
   1.064271120410000E-04   1.074967222990000E-04   1.085770823190000E-04
   1.096683001380000E-04   1.107704848780000E-04   1.118837467590000E-04
   1.130081971080000E-04   1.141439483710000E-04   1.152911141240000E-04
   1.164498090840000E-04   1.176201491220000E-04   1.188022512730000E-04
   1.199962337490000E-04   1.212022159470000E-04   1.224203184690000E-04
   1.236506631240000E-04   1.248933729480000E-04   1.261485722140000E-04
   1.274163864420000E-04   1.286969424150000E-04   1.299903681900000E-04
   1.312967931090000E-04   1.326163478180000E-04   1.339491642710000E-04
   1.352953757530000E-04   1.366551168850000E-04   1.380285236430000E-04
   1.394157333680000E-04   1.408168847820000E-04   1.422321180030000E-04
   1.436615745530000E-04   1.451053973810000E-04   1.465637308700000E-04
   1.480367208530000E-04   1.495245146320000E-04   1.510272609880000E-04
   1.525451101950000E-04   1.540782140400000E-04   1.556267258350000E-04
   1.571908004330000E-04   1.587705942410000E-04   1.603662652410000E-04
   1.619779730020000E-04   1.636058786940000E-04   1.652501451110000E-04
   1.669109366800000E-04   1.685884194820000E-04   1.702827612660000E-04
   1.719941314680000E-04   1.737227012270000E-04   1.754686434010000E-04
   1.772321325850000E-04   1.790133451300000E-04   1.808124591590000E-04
   1.826296545850000E-04   1.844651131280000E-04   1.863190183360000E-04
   1.881915556010000E-04   1.900829121790000E-04   1.919932772060000E-04
   1.939228417210000E-04   1.958717986820000E-04   1.978403429850000E-04
   1.998286714880000E-04   2.018369830250000E-04   2.038654784280000E-04
   2.059143605490000E-04   2.079838342780000E-04   2.100741065630000E-04
   2.121853864340000E-04   2.143178850200000E-04   2.164718155740000E-04
   2.186473934900000E-04   2.208448363270000E-04   2.230643638310000E-04
   2.253061979580000E-04   2.275705628930000E-04   2.298576850740000E-04
   2.321677932140000E-04   2.345011183270000E-04   2.368578937480000E-04
   2.392383551550000E-04   2.416427405980000E-04   2.440712905150000E-04
   2.465242477660000E-04   2.490018576460000E-04   2.515043679190000E-04
   2.540320288390000E-04   2.565850931740000E-04   2.591638162320000E-04
   2.617684558870000E-04   2.643992726060000E-04   2.670565294730000E-04
   2.697404922150000E-04   2.724514292310000E-04   2.751896116170000E-04
   2.779553131940000E-04   2.807488105330000E-04   2.835703829880000E-04
   2.864203127170000E-04   2.892988847160000E-04   2.922063868450000E-04
   2.951431098550000E-04   2.981093474230000E-04   3.011053961740000E-04
   3.041315557160000E-04   3.071881286660000E-04   3.102754206860000E-04
   3.133937405060000E-04   3.165433999610000E-04   3.197247140200000E-04
   3.229380008170000E-04   3.261835816830000E-04   3.294617811790000E-04
   3.327729271270000E-04   3.361173506460000E-04   3.394953861800000E-04
   3.429073715350000E-04   3.463536479140000E-04   3.498345599450000E-04
   3.533504557250000E-04   3.569016868440000E-04   3.604886084290000E-04
   3.641115791760000E-04   3.677709613840000E-04   3.714671209950000E-04
   3.752004276270000E-04   3.789712546150000E-04   3.827799790440000E-04
   3.866269817890000E-04   3.905126475560000E-04   3.944373649120000E-04
   3.984015263340000E-04   4.024055282400000E-04   4.064497710340000E-04
   4.105346591450000E-04   4.146606010630000E-04   4.188280093870000E-04
   4.230373008610000E-04   4.272888964170000E-04   4.315832212190000E-04
   4.359207047030000E-04   4.403017806210000E-04   4.447268870840000E-04
   4.491964666060000E-04   4.537109661490000E-04   4.582708371660000E-04
   4.628765356500000E-04   4.675285221720000E-04   4.722272619370000E-04
   4.769732248210000E-04   4.817668854250000E-04   4.866087231190000E-04
   4.914992220909999E-04   4.964388713950000E-04   5.014281650000000E-04
   5.064676018390000E-04   5.115576858600000E-04   5.166989260760000E-04
   5.218918366150000E-04   5.271369367730000E-04   5.324347510640000E-04
   5.377858092730000E-04   5.431906465120000E-04   5.486498032680000E-04
   5.541638254620000E-04   5.597332644990000E-04   5.653586773300000E-04
   5.710406265000000E-04   5.767796802080000E-04   5.825764123650000E-04
   5.884314026479999E-04   5.943452365630000E-04   6.003185054960000E-04
   6.063518067800000E-04   6.124457437500000E-04   6.186009258040001E-04
   6.248179684670000E-04   6.310974934470000E-04   6.374401287030000E-04
   6.438465085030000E-04   6.503172734900000E-04   6.568530707460000E-04
   6.634545538570000E-04   6.701223829760000E-04   6.768572248910000E-04
   6.836597530940000E-04   6.905306478410000E-04   6.974705962280000E-04
   7.044802922570000E-04   7.115604369020000E-04   7.187117381830000E-04
   7.259349112370000E-04   7.332306783870000E-04   7.405997692160000E-04
   7.480429206390000E-04   7.555608769780000E-04   7.631543900340000E-04
   7.708242191650000E-04   7.785711313600000E-04   7.863959013170000E-04
   7.942993115190000E-04   8.022821523150000E-04   8.103452219940000E-04
   8.184893268710000E-04   8.267152813630000E-04   8.350239080720000E-04
   8.434160378670001E-04   8.518925099690000E-04   8.604541720320001E-04
   8.691018802290000E-04   8.778364993389999E-04   8.866589028300000E-04
   8.955699729500000E-04   9.045706008130000E-04   9.136616864910000E-04
   9.228441390990000E-04   9.321188768890000E-04   9.414868273440000E-04
   9.509489272670000E-04   9.605061228740000E-04   9.701593698940000E-04
   9.799096336600001E-04   9.897578892060000E-04   9.997051213649999E-04
   1.009752324870000E-03   1.019900504450000E-03   1.030150674930000E-03
   1.040503861330000E-03   1.050961098990000E-03   1.061523433630000E-03
   1.072191921510000E-03   1.082967629460000E-03   1.093851635090000E-03
   1.104845026780000E-03   1.115948903910000E-03   1.127164376850000E-03
   1.138492567170000E-03   1.149934607690000E-03   1.161491642630000E-03
   1.173164827710000E-03   1.184955330240000E-03   1.196864329300000E-03
   1.208893015790000E-03   1.221042592580000E-03   1.233314274650000E-03
   1.245709289180000E-03   1.258228875680000E-03   1.270874286110000E-03
   1.283646785030000E-03   1.296547649690000E-03   1.309578170200000E-03
   1.322739649620000E-03   1.336033404110000E-03   1.349460763050000E-03
   1.363023069200000E-03   1.376721678780000E-03   1.390557961680000E-03
   1.404533301540000E-03   1.418649095890000E-03   1.432906756340000E-03
   1.447307708660000E-03   1.461853392950000E-03   1.476545263800000E-03
   1.491384790410000E-03   1.506373456740000E-03   1.521512761670000E-03
   1.536804219150000E-03   1.552249358330000E-03   1.567849723730000E-03
   1.583606875420000E-03   1.599522389110000E-03   1.615597856380000E-03
   1.631834884780000E-03   1.648235098020000E-03   1.664800136150000E-03
   1.681531655680000E-03   1.698431329780000E-03   1.715500848420000E-03
   1.732741918580000E-03   1.750156264380000E-03   1.767745627260000E-03
   1.785511766180000E-03   1.803456457760000E-03   1.821581496490000E-03
   1.839888694880000E-03   1.858379883680000E-03   1.877056912020000E-03
   1.895921647610000E-03   1.914975976950000E-03   1.934221805480000E-03
   1.953661057800000E-03   1.973295677860000E-03   1.993127629130000E-03
   2.013158894820000E-03   2.033391478080000E-03   2.053827402180000E-03
   2.074468710740000E-03   2.095317467890000E-03   2.116375758540000E-03
   2.137645688520000E-03   2.159129384860000E-03   2.180828995930000E-03
   2.202746691730000E-03   2.224884664020000E-03   2.247245126640000E-03
   2.269830315640000E-03   2.292642489560000E-03   2.315683929650000E-03
   2.338956940060000E-03   2.362463848110000E-03   2.386207004510000E-03
   2.410188783600000E-03   2.434411583580000E-03   2.458877826750000E-03
   2.483589959750000E-03   2.508550453810000E-03   2.533761805010000E-03
   2.559226534500000E-03   2.584947188780000E-03   2.610926339930000E-03
   2.637166585890000E-03   2.663670550710000E-03   2.690440884800000E-03
   2.717480265220000E-03   2.744791395940000E-03   2.772377008080000E-03
   2.800239860230000E-03   2.828382738700000E-03   2.856808457800000E-03
   2.885519860130000E-03   2.914519816850000E-03   2.943811227980000E-03
   2.973397022680000E-03   3.003280159570000E-03   3.033463626970000E-03
   3.063950443270000E-03   3.094743657160000E-03   3.125846348000000E-03
   3.157261626080000E-03   3.188992632950000E-03   3.221042541740000E-03
   3.253414557470000E-03   3.286111917360000E-03   3.319137891190000E-03
   3.352495781570000E-03   3.386188924330000E-03   3.420220688790000E-03
   3.454594478180000E-03   3.489313729900000E-03   3.524381915890000E-03
   3.559802543010000E-03   3.595579153360000E-03   3.631715324610000E-03
   3.668214670430000E-03   3.705080840770000E-03   3.742317522280000E-03
   3.779928438660000E-03   3.817917351030000E-03   3.856288058320000E-03
   3.895044397630000E-03   3.934190244630000E-03   3.973729513930000E-03
   4.013666159490000E-03   4.054004175010000E-03   4.094747594330000E-03
   4.135900491820000E-03   4.177466982810000E-03   4.219451223980000E-03
   4.261857413780000E-03   4.304689792880000E-03   4.347952644540000E-03
   4.391650295090000E-03   4.435787114330000E-03   4.480367515980000E-03
   4.525395958120000E-03   4.570876943620000E-03   4.616815020620000E-03
   4.663214782980000E-03   4.710080870700000E-03   4.757417970430000E-03
   4.805230815920000E-03   4.853524188500000E-03   4.902302917540000E-03
   4.951571880960000E-03   5.001336005690000E-03   5.051600268190000E-03
   5.102369694930000E-03   5.153649362890000E-03   5.205444400080000E-03
   5.257759986040000E-03   5.310601352390000E-03   5.363973783300000E-03
   5.417882616060000E-03   5.472333241590000E-03   5.527331105010000E-03
   5.582881706150000E-03   5.638990600100000E-03   5.695663397820000E-03
   5.752905766620000E-03   5.810723430800000E-03   5.869122172160000E-03
   5.928107830630000E-03   5.987686304820000E-03   6.047863552630000E-03
   6.108645591830000E-03   6.170038500690000E-03   6.232048418540000E-03
   6.294681546420000E-03   6.357944147700000E-03   6.421842548700000E-03
   6.486383139300000E-03   6.551572373620000E-03   6.617416770640000E-03
   6.683922914850000E-03   6.751097456930000E-03   6.818947114370000E-03
   6.887478672210000E-03   6.956698983650000E-03   7.026614970790000E-03
   7.097233625280000E-03   7.168562009050000E-03   7.240607255000000E-03
   7.313376567700000E-03   7.386877224160000E-03   7.461116574490000E-03
   7.536102042700000E-03   7.611841127390000E-03   7.688341402540000E-03
   7.765610518230000E-03   7.843656201450000E-03   7.922486256829999E-03
   8.002108567430000E-03   8.082531095560000E-03   8.163761883529999E-03
   8.245809054500000E-03   8.328680813239999E-03   8.412385446999999E-03
   8.496931326320000E-03   8.582326905850000E-03   8.668580725230000E-03
   8.755701409900001E-03   8.843697672010001E-03   8.932578311250000E-03
   9.022352215770000E-03   9.113028363030001E-03   9.204615820730001E-03
   9.297123747670000E-03   9.390561394740000E-03   9.484938105770000E-03
   9.580263318510000E-03   9.676546565570000E-03   9.773797475360000E-03
   9.872025773030001E-03   9.971241281510000E-03   1.007145392240000E-02
   1.017267371710000E-02   1.027491078770000E-02   1.037817535790000E-02
   1.048247775420000E-02   1.058782840710000E-02   1.069423785170000E-02
   1.080171672890000E-02   1.091027578680000E-02   1.101992588140000E-02
   1.113067797780000E-02   1.124254315120000E-02   1.135553258840000E-02
   1.146965758820000E-02   1.158492956340000E-02   1.170136004110000E-02
   1.181896066470000E-02   1.193774319410000E-02   1.205771950780000E-02
   1.217890160350000E-02   1.230130159950000E-02   1.242493173600000E-02
   1.254980437590000E-02   1.267593200680000E-02   1.280332724140000E-02
   1.293200281940000E-02   1.306197160850000E-02   1.319324660560000E-02
   1.332584093830000E-02   1.345976786630000E-02   1.359504078230000E-02
   1.373167321370000E-02   1.386967882380000E-02   1.400907141340000E-02
   1.414986492180000E-02   1.429207342850000E-02   1.443571115440000E-02
   1.458079246350000E-02   1.472733186400000E-02   1.487534400990000E-02
   1.502484370260000E-02   1.517584589230000E-02   1.532836567910000E-02
   1.548241831530000E-02   1.563801920630000E-02   1.579518391210000E-02
   1.595392814960000E-02   1.611426779310000E-02   1.627621887690000E-02
   1.643979759610000E-02   1.660502030880000E-02   1.677190353730000E-02
   1.694046397020000E-02   1.711071846360000E-02   1.728268404310000E-02
   1.745637790540000E-02   1.763181742000000E-02   1.780902013110000E-02
   1.798800375900000E-02   1.816878620230000E-02   1.835138553930000E-02
   1.853582003020000E-02   1.872210811860000E-02   1.891026843330000E-02
   1.910031979070000E-02   1.929228119590000E-02   1.948617184540000E-02
   1.968201112830000E-02   1.987981862870000E-02   2.007961412750000E-02
   2.028141760440000E-02   2.048524924010000E-02   2.069112941770000E-02
   2.089907872550000E-02   2.110911795860000E-02   2.132126812110000E-02
   2.153555042820000E-02   2.175198630820000E-02   2.197059740500000E-02
   2.219140557990000E-02   2.241443291380000E-02   2.263970170970000E-02
   2.286723449460000E-02   2.309705402200000E-02   2.332918327410000E-02
   2.356364546390000E-02   2.380046403790000E-02   2.403966267820000E-02
   2.428126530480000E-02   2.452529607810000E-02   2.477177940150000E-02
   2.502073992340000E-02   2.527220254020000E-02   2.552619239830000E-02
   2.578273489700000E-02   2.604185569060000E-02   2.630358069140000E-02
   2.656793607230000E-02   2.683494826890000E-02   2.710464398270000E-02
   2.737705018350000E-02   2.765219411210000E-02   2.793010328320000E-02
   2.821080548780000E-02   2.849432879660000E-02   2.878070156190000E-02
   2.906995242140000E-02   2.936211030040000E-02   2.965720441490000E-02
   2.995526427450000E-02   3.025631968550000E-02   3.056040075370000E-02
   3.086753788740000E-02   3.117776180070000E-02   3.149110351610000E-02
   3.180759436810000E-02   3.212726600600000E-02   3.245015039730000E-02
   3.277627983070000E-02   3.310568691940000E-02   3.343840460440000E-02
   3.377446615770000E-02   3.411390518580000E-02   3.445675563280000E-02
   3.480305178410000E-02   3.515282826950000E-02   3.550612006710000E-02
   3.586296250630000E-02   3.622339127160000E-02   3.658744240630000E-02
   3.695515231560000E-02   3.732655777100000E-02   3.770169591330000E-02
   3.808060425660000E-02   3.846332069200000E-02   3.884988349160000E-02
   3.924033131190000E-02   3.963470319800000E-02   4.003303858750000E-02
   4.043537731420000E-02   4.084175961230000E-02   4.125222612040000E-02
   4.166681788550000E-02   4.208557636710000E-02   4.250854344150000E-02
   4.293576140550000E-02   4.336727298160000E-02   4.380312132100000E-02
   4.424335000910000E-02   4.468800306900000E-02   4.513712496650000E-02
   4.559076061420000E-02   4.604895537580000E-02   4.651175507140000E-02
   4.697920598120000E-02   4.745135485080000E-02   4.792824889550000E-02
   4.840993580490000E-02   4.889646374830000E-02   4.938788137880000E-02
   4.988423783860000E-02   5.038558276370000E-02   5.089196628910000E-02
   5.140343905360000E-02   5.192005220480000E-02   5.244185740440000E-02
   5.296890683360000E-02   5.350125319750000E-02   5.403894973130000E-02
   5.458205020520000E-02   5.513060892960000E-02   5.568468076080000E-02
   5.624432110640000E-02   5.680958593110000E-02   5.738053176170000E-02
   5.795721569330000E-02   5.853969539470000E-02   5.912802911450000E-02
   5.972227568640000E-02   6.032249453570000E-02   6.092874568470000E-02
   6.154108975910000E-02   6.215958799370000E-02   6.278430223890000E-02
   6.341529496669999E-02   6.405262927680000E-02   6.469636890320000E-02
   6.534657822050000E-02   6.600332224990001E-02   6.666666666670000E-02
   6.733667780560000E-02   6.801342266850000E-02   6.869696893020000E-02
   6.938738494620000E-02   7.008473975840000E-02   7.078910310300000E-02
   7.150054541690000E-02   7.221913784500000E-02   7.294495224700000E-02
   7.367806120500001E-02   7.441853803060000E-02   7.516645677200000E-02
   7.592189222159999E-02   7.668491992380000E-02   7.745561618190000E-02
   7.823405806610000E-02   7.902032342140000E-02   7.981449087480000E-02
   8.061663984380001E-02   8.142685054400001E-02   8.224520399710000E-02
   8.307178203920000E-02   8.390666732860000E-02   8.474994335480000E-02
   8.560169444580000E-02   8.646200577770000E-02   8.733096338220001E-02
   8.820865415580000E-02   8.909516586839999E-02   8.999058717170000E-02
   9.089500760880000E-02   9.180851762240000E-02   9.273120856430001E-02
   9.366317270420001E-02   9.460450323960000E-02   9.555529430400000E-02
   9.651564097760000E-02   9.748563929560000E-02   9.846538625880000E-02
   9.945497984280000E-02   1.004545190080000E-01   1.014641037080000E-01
   1.024838349030000E-01   1.035138145670000E-01   1.045541456990000E-01
   1.056049323330000E-01   1.066662795480000E-01   1.077382934800000E-01
   1.088210813300000E-01   1.099147513800000E-01   1.110194129960000E-01
   1.121351766470000E-01   1.132621539080000E-01   1.144004574790000E-01
   1.155502011910000E-01   1.167115000200000E-01   1.178844700960000E-01
   1.190692287170000E-01   1.202658943600000E-01   1.214745866930000E-01
   1.226954265850000E-01   1.239285361230000E-01   1.251740386180000E-01
   1.264320586200000E-01   1.277027219340000E-01   1.289861556270000E-01
   1.302824880420000E-01   1.315918488150000E-01   1.329143688830000E-01
   1.342501804980000E-01   1.355994172430000E-01   1.369622140430000E-01
   1.383387071780000E-01   1.397290343000000E-01   1.411333344410000E-01
   1.425517480330000E-01   1.439844169190000E-01   1.454314843670000E-01
   1.468930950840000E-01   1.483693952330000E-01   1.498605324450000E-01
   1.513666558350000E-01   1.528879160180000E-01   1.544244651190000E-01
   1.559764567950000E-01   1.575440462470000E-01   1.591273902350000E-01
   1.607266470940000E-01   1.623419767530000E-01   1.639735407440000E-01
   1.656215022260000E-01   1.672860259960000E-01   1.689672785080000E-01
   1.706654278890000E-01   1.723806439540000E-01   1.741130982280000E-01
   1.758629639570000E-01   1.776304161290000E-01   1.794156314900000E-01
   1.812187885640000E-01   1.830400676680000E-01   1.848796509310000E-01
   1.867377223130000E-01   1.886144676230000E-01   1.905100745380000E-01
   1.924247326180000E-01   1.943586333320000E-01   1.963119700710000E-01
   1.982849381710000E-01   2.002777349300000E-01   2.022905596290000E-01
   2.043236135530000E-01   2.063771000080000E-01   2.084512243460000E-01
   2.105461939790000E-01   2.126622184080000E-01   2.147995092350000E-01
   2.169582801930000E-01   2.191387471590000E-01   2.213411281820000E-01
   2.235656435030000E-01   2.258125155750000E-01   2.280819690860000E-01
   2.303742309840000E-01   2.326895304970000E-01   2.350280991580000E-01
   2.373901708240000E-01   2.397759817050000E-01   2.421857703840000E-01
   2.446197778410000E-01   2.470782474810000E-01   2.495614251510000E-01
   2.520695591710000E-01   2.546029003580000E-01   2.571617020460000E-01
   2.597462201200000E-01   2.623567130310000E-01   2.649934418330000E-01
   2.676566702000000E-01   2.703466644560000E-01   2.730636936050000E-01
   2.758080293500000E-01   2.785799461280000E-01   2.813797211330000E-01
   2.842076343450000E-01   2.870639685560000E-01   2.899490094040000E-01
   2.928630453950000E-01   2.958063679340000E-01   2.987792713560000E-01
   3.017820529540000E-01   3.048150130090000E-01   3.078784548200000E-01
   3.109726847330000E-01   3.140980121730000E-01   3.172547496760000E-01
   3.204432129180000E-01   3.236637207490000E-01   3.269165952220000E-01
   3.302021616260000E-01   3.335207485220000E-01   3.368726877710000E-01
   3.402583145690000E-01   3.436779674820000E-01   3.471319884790000E-01
   3.506207229630000E-01   3.541445198120000E-01   3.577037314080000E-01
   3.612987136750000E-01   3.649298261150000E-01   3.685974318420000E-01
   3.723018976180000E-01   3.760435938950000E-01   3.798228948450000E-01
   3.836401784000000E-01   3.874958262940000E-01   3.913902240920000E-01
   3.953237612390000E-01   3.992968310920000E-01   4.033098309610000E-01
   4.073631621490000E-01   4.114572299920000E-01   4.155924439020000E-01
   4.197692174020000E-01   4.239879681730000E-01   4.282491180950000E-01
   4.325530932860000E-01   4.369003241460000E-01   4.412912454030000E-01
   4.457262961520000E-01   4.502059199020000E-01   4.547305646190000E-01
   4.593006827720000E-01   4.639167313760000E-01   4.685791720390000E-01
   4.732884710100000E-01   4.780450992230000E-01   4.828495323440000E-01
   4.877022508210000E-01   4.926037399290000E-01   4.975544898210000E-01
   5.025549955770000E-01   5.076057572520000E-01   5.127072799250000E-01
   5.178600737540000E-01   5.230646540210000E-01   5.283215411900000E-01
   5.336312609530000E-01   5.389943442870000E-01   5.444113275050000E-01
   5.498827523080000E-01   5.554091658460000E-01   5.609911207630000E-01
   5.666291752590000E-01   5.723238931450000E-01   5.780758438980000E-01
   5.838856027160000E-01   5.897537505810000E-01   5.956808743130000E-01
   6.016675666290000E-01   6.077144262030000E-01   6.138220577250000E-01
   6.199910719660000E-01   6.262220858300001E-01   6.325157224240000E-01
   6.388726111180000E-01   6.452933876050000E-01   6.517786939690000E-01
   6.583291787450000E-01   6.649454969880000E-01   6.716283103339999E-01
   6.783782870720000E-01   6.851961022030000E-01   6.920824375150000E-01
   6.990379816490000E-01   7.060634301620000E-01   7.131594856070000E-01
   7.203268575950000E-01   7.275662628689999E-01   7.348784253760000E-01
   7.422640763380000E-01   7.497239543250001E-01   7.572588053330001E-01
   7.648693828530000E-01   7.725564479480000E-01   7.803207693320000E-01
   7.881631234430000E-01   7.960842945230000E-01   8.040850746960000E-01
   8.121662640470000E-01   8.203286707010000E-01   8.285731109050000E-01
   8.369004091110001E-01   8.453113980560000E-01   8.538069188440000E-01
   8.623878210360000E-01   8.710549627290000E-01   8.798092106440000E-01
   8.886514402130000E-01   8.975825356670000E-01   9.066033901220000E-01
   9.157149056720000E-01   9.249179934750000E-01   9.342135738489999E-01
   9.436025763580000E-01   9.530859399120000E-01   9.626646128540000E-01
   9.723395530590000E-01   9.821117280300000E-01   9.919821149920000E-01
   1.001951700990000E+00   1.012021483000000E+00   1.022192467990000E+00
   1.032465673090000E+00   1.042842125610000E+00   1.053322863220000E+00
   1.063908933990000E+00   1.074601396540000E+00   1.085401320120000E+00
   1.096309784740000E+00   1.107327881250000E+00   1.118456711480000E+00
   1.129697388300000E+00   1.141051035810000E+00   1.152518789370000E+00
   1.164101795770000E+00   1.175801213320000E+00   1.187618211970000E+00
   1.199553973440000E+00   1.211609691300000E+00   1.223786571130000E+00
   1.236085830650000E+00   1.248508699780000E+00   1.261056420820000E+00
   1.273730248550000E+00   1.286531450370000E+00   1.299461306400000E+00
   1.312521109650000E+00   1.325712166100000E+00   1.339035794880000E+00
   1.352493328350000E+00   1.366086112280000E+00   1.379815505960000E+00
   1.393682882340000E+00   1.407689628170000E+00   1.421837144140000E+00
   1.436126845000000E+00   1.450560159750000E+00   1.465138531720000E+00
   1.479863418760000E+00   1.494736293380000E+00   1.509758642880000E+00
   1.524931969500000E+00   1.540257790580000E+00   1.555737638730000E+00
   1.571373061940000E+00   1.587165623760000E+00   1.603116903470000E+00
   1.619228496210000E+00   1.635502013140000E+00   1.651939081640000E+00
   1.668541345420000E+00   1.685310464730000E+00   1.702248116490000E+00
   1.719355994480000E+00   1.736635809500000E+00   1.754089289550000E+00
   1.771718179990000E+00   1.789524243730000E+00   1.807509261380000E+00
   1.825675031460000E+00   1.844023370570000E+00   1.862556113550000E+00
   1.881275113690000E+00   1.900182242920000E+00   1.919279391950000E+00
   1.938568470520000E+00   1.958051407550000E+00   1.977730151360000E+00
   1.997606669830000E+00   2.017682950630000E+00   2.037961001400000E+00
   2.058442849980000E+00   2.079130544550000E+00   2.100026153920000E+00
   2.121131767640000E+00   2.142449496320000E+00   2.163981471720000E+00
   2.185729847080000E+00   2.207696797250000E+00   2.229884518930000E+00
   2.252295230920000E+00   2.274931174320000E+00   2.297794612720000E+00
   2.320887832510000E+00   2.344213143010000E+00   2.367772876780000E+00
   2.391569389800000E+00   2.415605061770000E+00   2.439882296250000E+00
   2.464403520990000E+00   2.489171188140000E+00   2.514187774480000E+00
   2.539455781690000E+00   2.564977736600000E+00   2.590756191420000E+00
   2.616793724020000E+00   2.643092938170000E+00   2.669656463820000E+00