<UPF version="2.0.1">
  <PP_INFO>
    Generated by new atomic code, or converted to UPF format
    Author: 
    Generation date: 
    Pseudopotential type: NC
    Element: S
    Functional:  SLA  PW   SCAN SCAN
    Suggested minimum cutoff for wavefunctions:   0. Ry
    Suggested minimum cutoff for charge density:   0. Ry
    The Pseudo was generated with a Non-Relativistic Calculation
    L component and cutoff radius for Local Potential:  0   0.0000
    Valence configuration: 
    nl pn  l   occ       Rcut    Rcut US       E pseu
    0S  1  0  2.00      0.000      0.000     0.000000
    0P  2  1  4.00      0.000      0.000     0.000000
    0D  3  2  0.00      0.000      0.000     0.000000
    Generation configuration: not available.
  </PP_INFO>
    <!-- END OF HUMAN READABLE SECTION -->
  <PP_HEADER generated="Generated by new atomic code, or converted to UPF format" author="" date="" comment="" element="S" pseudo_type="NC" relativistic="no" is_ultrasoft="false" is_paw="false" is_coulomb="false" has_so="false" has_wfc="false" has_gipaw="false" paw_as_gipaw="false" core_correction="false" functional=" SLA  PW   SCAN SCAN" z_valence="6.00000000000000" total_psenergy="0.000000000000000E+000" wfc_cutoff="0.000000000000000E+000" rho_cutoff="0.000000000000000E+000" l_max="1" l_max_rho="0" l_local="0" mesh_size="1487" number_of_wfc="3" number_of_proj="2"/>
  <PP_MESH mesh="1487" dx="1.000000000000024E-002" xmin="-8.00000000000033" rmax="59.5854417182000" zmesh="16.0000000000000">
    <PP_R>
   2.096641424390000E-05   2.117713021020000E-05   2.138996390720000E-05
   2.160493661840000E-05   2.182206984120000E-05   2.204138528930000E-05
   2.226290489420000E-05   2.248665080820000E-05   2.271264540590000E-05
   2.294091128720000E-05   2.317147127870000E-05   2.340434843660000E-05
   2.363956604890000E-05   2.387714763750000E-05   2.411711696080000E-05
   2.435949801580000E-05   2.460431504090000E-05   2.485159251810000E-05
   2.510135517520000E-05   2.535362798880000E-05   2.560843618620000E-05
   2.586580524870000E-05   2.612576091320000E-05   2.638832917560000E-05
   2.665353629290000E-05   2.692140878600000E-05   2.719197344240000E-05
   2.746525731890000E-05   2.774128774390000E-05   2.802009232090000E-05
   2.830169893040000E-05   2.858613573340000E-05   2.887343117390000E-05
   2.916361398140000E-05   2.945671317470000E-05   2.975275806390000E-05
   3.005177825360000E-05   3.035380364630000E-05   3.065886444460000E-05
   3.096699115480000E-05   3.127821459000000E-05   3.159256587280000E-05
   3.191007643840000E-05   3.223077803830000E-05   3.255470274280000E-05
   3.288188294480000E-05   3.321235136240000E-05   3.354614104280000E-05
   3.388328536540000E-05   3.422381804460000E-05   3.456777313420000E-05
   3.491518503000000E-05   3.526608847330000E-05   3.562051855490000E-05
   3.597851071800000E-05   3.634010076210000E-05   3.670532484660000E-05
   3.707421949420000E-05   3.744682159460000E-05   3.782316840840000E-05
   3.820329757060000E-05   3.858724709430000E-05   3.897505537500000E-05
   3.936676119360000E-05   3.976240372120000E-05   4.016202252220000E-05
   4.056565755900000E-05   4.097334919540000E-05   4.138513820080000E-05
   4.180106575450000E-05   4.222117344960000E-05   4.264550329730000E-05
   4.307409773080000E-05   4.350699961000000E-05   4.394425222540000E-05
   4.438589930270000E-05   4.483198500680000E-05   4.528255394690000E-05
   4.573765118000000E-05   4.619732221640000E-05   4.666161302350000E-05
   4.713057003080000E-05   4.760424013440000E-05   4.808267070170000E-05
   4.856590957610000E-05   4.905400508190000E-05   4.954700602920000E-05
   5.004496171830000E-05   5.054792194530000E-05   5.105593700660000E-05
   5.156905770410000E-05   5.208733535040000E-05   5.261082177370000E-05
   5.313956932290000E-05   5.367363087340000E-05   5.421305983170000E-05
   5.475791014110000E-05   5.530823628720000E-05   5.586409330310000E-05
   5.642553677480000E-05   5.699262284720000E-05   5.756540822930000E-05
   5.814395020030000E-05   5.872830661480000E-05   5.931853590880000E-05
   5.991469710590000E-05   6.051684982260000E-05   6.112505427470000E-05
   6.173937128320000E-05   6.235986228030000E-05   6.298658931550000E-05
   6.361961506220000E-05   6.425900282340000E-05   6.490481653850000E-05
   6.555712078919999E-05   6.621598080670001E-05   6.688146247749999E-05
   6.755363235020000E-05   6.823255764250000E-05   6.891830624740000E-05
   6.961094674030000E-05   7.031054838590000E-05   7.101718114500000E-05
   7.173091568130000E-05   7.245182336900000E-05   7.317997629940001E-05
   7.391544728849999E-05   7.465830988380001E-05   7.540863837240001E-05
   7.616650778760000E-05   7.693199391710000E-05   7.770517331010000E-05
   7.848612328510000E-05   7.927492193800000E-05   8.007164814900001E-05
   8.087638159160000E-05   8.168920273980000E-05   8.251019287630000E-05
   8.333943410079999E-05   8.417700933820000E-05   8.502300234670000E-05
   8.587749772630000E-05   8.674058092719999E-05   8.761233825850000E-05
   8.849285689670001E-05   8.938222489420000E-05   9.028053118880000E-05
   9.118786561170000E-05   9.210431889710000E-05   9.302998269120000E-05
   9.396494956109999E-05   9.490931300420000E-05   9.586316745780000E-05
   9.682660830789999E-05   9.779973189960000E-05   9.878263554600000E-05
   9.977541753830000E-05   1.007781771550000E-04   1.017910146740000E-04
   1.028140313790000E-04   1.038473295730000E-04   1.048910125870000E-04
   1.059451847890000E-04   1.070099515980000E-04   1.080854194910000E-04
   1.091716960160000E-04   1.102688898020000E-04   1.113771105690000E-04
   1.124964691390000E-04   1.136270774510000E-04   1.147690485640000E-04
   1.159224966780000E-04   1.170875371390000E-04   1.182642864510000E-04
   1.194528622900000E-04   1.206533835140000E-04   1.218659701780000E-04
   1.230907435400000E-04   1.243278260790000E-04   1.255773415040000E-04
   1.268394147680000E-04   1.281141720800000E-04   1.294017409150000E-04
   1.307022500320000E-04   1.320158294830000E-04   1.333426106270000E-04
   1.346827261440000E-04   1.360363100450000E-04   1.374034976900000E-04
   1.387844258000000E-04   1.401792324680000E-04   1.415880571760000E-04
   1.430110408080000E-04   1.444483256630000E-04   1.459000554710000E-04
   1.473663754060000E-04   1.488474321010000E-04   1.503433736640000E-04
   1.518543496890000E-04   1.533805112760000E-04   1.549220110420000E-04
   1.564790031380000E-04   1.580516432640000E-04   1.596400886870000E-04
   1.612444982520000E-04   1.628650324010000E-04   1.645018531880000E-04
   1.661551242990000E-04   1.678250110600000E-04   1.695116804620000E-04
   1.712153011730000E-04   1.729360435570000E-04   1.746740796900000E-04
   1.764295833760000E-04   1.782027301670000E-04   1.799936973810000E-04
   1.818026641130000E-04   1.836298112640000E-04   1.854753215490000E-04
   1.873393795200000E-04   1.892221715860000E-04   1.911238860260000E-04
   1.930447130150000E-04   1.949848446350000E-04   1.969444749030000E-04
   1.989237997820000E-04   2.009230172070000E-04   2.029423271010000E-04
   2.049819313960000E-04   2.070420340560000E-04   2.091228410920000E-04
   2.112245605860000E-04   2.133474027120000E-04   2.154915797560000E-04
   2.176573061380000E-04   2.198447984320000E-04   2.220542753890000E-04
   2.242859579580000E-04   2.265400693100000E-04   2.288168348580000E-04
   2.311164822800000E-04   2.334392415430000E-04   2.357853449250000E-04
   2.381550270370000E-04   2.405485248510000E-04   2.429660777170000E-04
   2.454079273940000E-04   2.478743180680000E-04   2.503654963810000E-04
   2.528817114510000E-04   2.554232149040000E-04   2.579902608910000E-04
   2.605831061190000E-04   2.632020098750000E-04   2.658472340510000E-04
   2.685190431720000E-04   2.712177044210000E-04   2.739434876670000E-04
   2.766966654890000E-04   2.794775132090000E-04   2.822863089130000E-04
   2.851233334830000E-04   2.879888706250000E-04   2.908832068930000E-04
   2.938066317240000E-04   2.967594374630000E-04   2.997419193940000E-04
   3.027543757660000E-04   3.057971078270000E-04   3.088704198550000E-04
   3.119746191820000E-04   3.151100162310000E-04   3.182769245440000E-04
   3.214756608140000E-04   3.247065449190000E-04   3.279698999490000E-04
   3.312660522420000E-04   3.345953314160000E-04   3.379580704030000E-04
   3.413546054780000E-04   3.447852762980000E-04   3.482504259320000E-04
   3.517504009000000E-04   3.552855512010000E-04   3.588562303530000E-04
   3.624627954280000E-04   3.661056070830000E-04   3.697850296050000E-04
   3.735014309380000E-04   3.772551827250000E-04   3.810466603450000E-04
   3.848762429480000E-04   3.887443134960000E-04   3.926512588000000E-04
   3.965974695570000E-04   4.005833403910000E-04   4.046092698930000E-04
   4.086756606590000E-04   4.127829193320000E-04   4.169314566410000E-04
   4.211216874430000E-04   4.253540307640000E-04   4.296289098440000E-04
   4.339467521720000E-04   4.383079895370000E-04   4.427130580660000E-04
   4.471623982700000E-04   4.516564550860000E-04   4.561956779240000E-04
   4.607805207110000E-04   4.654114419330000E-04   4.700889046870000E-04
   4.748133767240000E-04   4.795853304930000E-04   4.844052431960000E-04
   4.892735968270000E-04   4.941908782250000E-04   4.991575791220000E-04
   5.041741961940000E-04   5.092412311049999E-04   5.143591905640000E-04
   5.195285863700000E-04   5.247499354680000E-04   5.300237599970000E-04
   5.353505873440000E-04   5.407309501949999E-04   5.461653865920000E-04
   5.516544399830000E-04   5.571986592770000E-04   5.627985989020000E-04
   5.684548188560000E-04   5.741678847650000E-04   5.799383679420000E-04
   5.857668454380000E-04   5.916539001070000E-04   5.976001206590000E-04
   6.036061017210000E-04   6.096724438960000E-04   6.157997538240000E-04
   6.219886442410000E-04   6.282397340400000E-04   6.345536483360000E-04
   6.409310185250000E-04   6.473724823510000E-04   6.538786839640000E-04
   6.604502739910000E-04   6.670879095950000E-04   6.737922545460000E-04
   6.805639792850000E-04   6.874037609880000E-04   6.943122836400000E-04
   7.012902380990000E-04   7.083383221670000E-04   7.154572406570000E-04
   7.226477054670000E-04   7.299104356500000E-04   7.372461574840000E-04
   7.446556045490000E-04   7.521395177950000E-04   7.596986456200000E-04
   7.673337439420001E-04   7.750455762780000E-04   7.828349138170000E-04
   7.907025355000000E-04   7.986492280960000E-04   8.066757862800000E-04
   8.147830127150000E-04   8.229717181300001E-04   8.312427214030000E-04
   8.395968496400000E-04   8.480349382630000E-04   8.565578310850000E-04
   8.651663804050000E-04   8.738614470840000E-04   8.826439006350000E-04
   8.915146193119999E-04   9.004744901950000E-04   9.095244092760000E-04
   9.186652815560000E-04   9.278980211300000E-04   9.372235512800000E-04
   9.466428045650001E-04   9.561567229200000E-04   9.657662577440000E-04
   9.754723699990000E-04   9.852760303029999E-04   9.951782190320000E-04
   1.005179926410000E-03   1.015282152620000E-03   1.025485907890000E-03
   1.035792212610000E-03   1.046202097410000E-03   1.056716603290000E-03
   1.067336781720000E-03   1.078063694710000E-03   1.088898414970000E-03
   1.099842025980000E-03   1.110895622100000E-03   1.122060308720000E-03
   1.133337202300000E-03   1.144727430550000E-03   1.156232132490000E-03
   1.167852458610000E-03   1.179589570950000E-03   1.191444643230000E-03
   1.203418860960000E-03   1.215513421590000E-03   1.227729534570000E-03
   1.240068421520000E-03   1.252531316360000E-03   1.265119465360000E-03
   1.277834127370000E-03   1.290676573860000E-03   1.303648089080000E-03
   1.316749970190000E-03   1.329983527400000E-03   1.343350084070000E-03
   1.356850976870000E-03   1.370487555890000E-03   1.384261184810000E-03
   1.398173241010000E-03   1.412225115700000E-03   1.426418214070000E-03
   1.440753955450000E-03   1.455233773430000E-03   1.469859116000000E-03
   1.484631445710000E-03   1.499552239790000E-03   1.514622990360000E-03
   1.529845204480000E-03   1.545220404400000E-03   1.560750127640000E-03
   1.576435927200000E-03   1.592279371670000E-03   1.608282045400000E-03
   1.624445548670000E-03   1.640771497860000E-03   1.657261525560000E-03
   1.673917280790000E-03   1.690740429150000E-03   1.707732652960000E-03
   1.724895651450000E-03   1.742231140950000E-03   1.759740855020000E-03
   1.777426544640000E-03   1.795289978390000E-03   1.813332942640000E-03
   1.831557241690000E-03   1.849964697990000E-03   1.868557152310000E-03
   1.887336463890000E-03   1.906304510700000E-03   1.925463189550000E-03
   1.944814416320000E-03   1.964360126150000E-03   1.984102273630000E-03
   2.004042832990000E-03   2.024183798310000E-03   2.044527183690000E-03
   2.065075023490000E-03   2.085829372520000E-03   2.106792306220000E-03
   2.127965920910000E-03   2.149352333970000E-03   2.170953684050000E-03
   2.192772131300000E-03   2.214809857600000E-03   2.237069066730000E-03
   2.259551984630000E-03   2.282260859610000E-03   2.305197962580000E-03
   2.328365587260000E-03   2.351766050450000E-03   2.375401692200000E-03
   2.399274876100000E-03   2.423387989480000E-03   2.447743443690000E-03
   2.472343674270000E-03   2.497191141290000E-03   2.522288329500000E-03
   2.547637748650000E-03   2.573241933690000E-03   2.599103445070000E-03
   2.625224868970000E-03   2.651608817530000E-03   2.678257929190000E-03
   2.705174868870000E-03   2.732362328300000E-03   2.759823026230000E-03
   2.787559708770000E-03   2.815575149600000E-03   2.843872150290000E-03
   2.872453540570000E-03   2.901322178590000E-03   2.930480951250000E-03
   2.959932774450000E-03   2.989680593390000E-03   3.019727382880000E-03
   3.050076147630000E-03   3.080729922530000E-03   3.111691772990000E-03
   3.142964795220000E-03   3.174552116560000E-03   3.206456895740000E-03
   3.238682323300000E-03   3.271231621780000E-03   3.304108046150000E-03
   3.337314884070000E-03   3.370855456270000E-03   3.404733116820000E-03
   3.438951253530000E-03   3.473513288220000E-03   3.508422677130000E-03
   3.543682911240000E-03   3.579297516590000E-03   3.615270054680000E-03
   3.651604122780000E-03   3.688303354340000E-03   3.725371419310000E-03
   3.762812024520000E-03   3.800628914080000E-03   3.838825869690000E-03
   3.877406711080000E-03   3.916375296380000E-03   3.955735522480000E-03
   3.995491325420000E-03   4.035646680820000E-03   4.076205604260000E-03
   4.117172151650000E-03   4.158550419690000E-03   4.200344546230000E-03
   4.242558710740000E-03   4.285197134640000E-03   4.328264081830000E-03
   4.371763859040000E-03   4.415700816280000E-03   4.460079347270000E-03
   4.504903889920000E-03   4.550178926710000E-03   4.595908985190000E-03
   4.642098638400000E-03   4.688752505330000E-03   4.735875251430000E-03
   4.783471588990000E-03   4.831546277710000E-03   4.880104125070000E-03
   4.929149986920000E-03   4.978688767870000E-03   5.028725421850000E-03
   5.079264952560000E-03   5.130312413990000E-03   5.181872910950000E-03
   5.233951599510000E-03   5.286553687600000E-03   5.339684435460000E-03
   5.393349156210000E-03   5.447553216370000E-03   5.502302036400000E-03
   5.557601091210000E-03   5.613455910770000E-03   5.669872080590000E-03
   5.726855242340000E-03   5.784411094400000E-03   5.842545392380000E-03
   5.901263949770000E-03   5.960572638470000E-03   6.020477389410000E-03
   6.080984193100000E-03   6.142099100270000E-03   6.203828222480000E-03
   6.266177732680000E-03   6.329153865870000E-03   6.392762919720000E-03
   6.457011255190000E-03   6.521905297170000E-03   6.587451535120000E-03
   6.653656523700000E-03   6.720526883490000E-03   6.788069301560000E-03
   6.856290532220000E-03   6.925197397650000E-03   6.994796788580000E-03
   7.065095665030000E-03   7.136101056930000E-03   7.207820064880000E-03
   7.280259860840000E-03   7.353427688860000E-03   7.427330865780000E-03
   7.501976781970000E-03   7.577372902090000E-03   7.653526765810000E-03
   7.730445988590000E-03   7.808138262410000E-03   7.886611356560000E-03
   7.965873118430000E-03   8.045931474240001E-03   8.126794429900001E-03
   8.208470071779999E-03   8.290966567509999E-03   8.374292166799999E-03
   8.458455202290001E-03   8.543464090350001E-03   8.629327331930000E-03
   8.716053513440000E-03   8.803651307570000E-03   8.892129474160000E-03
   8.981496861110000E-03   9.071762405229999E-03   9.162935133150000E-03
   9.255024162220000E-03   9.348038701410001E-03   9.441988052269999E-03
   9.536881609810000E-03   9.632728863450001E-03   9.729539398000000E-03
   9.827322894599999E-03   9.926089131679999E-03   1.002584798590000E-02
   1.012660943340000E-02   1.022838355020000E-02   1.033118051380000E-02
   1.043501060420000E-02   1.053988420430000E-02   1.064581180160000E-02
   1.075280398890000E-02   1.086087146570000E-02   1.097002503860000E-02
   1.108027562310000E-02   1.119163424450000E-02   1.130411203860000E-02
   1.141772025330000E-02   1.153247024960000E-02   1.164837350250000E-02
   1.176544160240000E-02   1.188368625630000E-02   1.200311928880000E-02
   1.212375264320000E-02   1.224559838290000E-02   1.236866869270000E-02
   1.249297587970000E-02   1.261853237470000E-02   1.274535073340000E-02
   1.287344363780000E-02   1.300282389730000E-02   1.313350445000000E-02
   1.326549836420000E-02   1.339881883920000E-02   1.353347920730000E-02
   1.366949293450000E-02   1.380687362250000E-02   1.394563500930000E-02
   1.408579097120000E-02   1.422735552400000E-02   1.437034282420000E-02
   1.451476717060000E-02   1.466064300590000E-02   1.480798491760000E-02
   1.495680764020000E-02   1.510712605610000E-02   1.525895519710000E-02
   1.541231024640000E-02   1.556720653950000E-02   1.572365956620000E-02
   1.588168497210000E-02   1.604129855960000E-02   1.620251629040000E-02
   1.636535428630000E-02   1.652982883120000E-02   1.669595637290000E-02
   1.686375352400000E-02   1.703323706460000E-02   1.720442394310000E-02
   1.737733127830000E-02   1.755197636110000E-02   1.772837665620000E-02
   1.790654980380000E-02   1.808651362120000E-02   1.826828610510000E-02
   1.845188543280000E-02   1.863732996440000E-02   1.882463824450000E-02
   1.901382900420000E-02   1.920492116260000E-02   1.939793382910000E-02
   1.959288630520000E-02   1.978979808620000E-02   1.998868886350000E-02
   2.018957852640000E-02   2.039248716390000E-02   2.059743506720000E-02
   2.080444273110000E-02   2.101353085670000E-02   2.122472035280000E-02
   2.143803233870000E-02   2.165348814560000E-02   2.187110931940000E-02
   2.209091762240000E-02   2.231293503560000E-02   2.253718376080000E-02
   2.276368622320000E-02   2.299246507320000E-02   2.322354318890000E-02
   2.345694367820000E-02   2.369268988150000E-02   2.393080537340000E-02
   2.417131396590000E-02   2.441423970990000E-02   2.465960689820000E-02
   2.490744006780000E-02   2.515776400210000E-02   2.541060373380000E-02
   2.566598454700000E-02   2.592393198010000E-02   2.618447182800000E-02
   2.644763014490000E-02   2.671343324680000E-02   2.698190771430000E-02
   2.725308039510000E-02   2.752697840660000E-02   2.780362913890000E-02
   2.808306025730000E-02   2.836529970510000E-02   2.865037570660000E-02
   2.893831676950000E-02   2.922915168810000E-02   2.952290954630000E-02
   2.981961972010000E-02   3.011931188060000E-02   3.042201599750000E-02
   3.072776234130000E-02   3.103658148700000E-02   3.134850431660000E-02
   3.166356202280000E-02   3.198178611170000E-02   3.230320840570000E-02
   3.262786104760000E-02   3.295577650270000E-02   3.328698756290000E-02
   3.362152734970000E-02   3.395942931720000E-02   3.430072725590000E-02
   3.464545529590000E-02   3.499364791030000E-02   3.534533991870000E-02
   3.570056649060000E-02   3.605936314880000E-02   3.642176577340000E-02
   3.678781060490000E-02   3.715753424810000E-02   3.753097367580000E-02
   3.790816623200000E-02   3.828914963650000E-02   3.867396198790000E-02
   3.906264176770000E-02   3.945522784420000E-02   3.985175947640000E-02
   4.025227631770000E-02   4.065681842020000E-02   4.106542623840000E-02
   4.147814063350000E-02   4.189500287720000E-02   4.231605465610000E-02
   4.274133807580000E-02   4.317089566480000E-02   4.360477037940000E-02
   4.404300560740000E-02   4.448564517270000E-02   4.493273333950000E-02
   4.538431481710000E-02   4.584043476400000E-02   4.630113879260000E-02
   4.676647297370000E-02   4.723648384100000E-02   4.771121839610000E-02
   4.819072411270000E-02   4.867504894200000E-02   4.916424131670000E-02
   4.965835015650000E-02   5.015742487270000E-02   5.066151537310000E-02
   5.117067206740000E-02   5.168494587150000E-02   5.220438821320000E-02
   5.272905103730000E-02   5.325898681040000E-02   5.379424852660000E-02
   5.433488971240000E-02   5.488096443250000E-02   5.543252729480000E-02
   5.598963345600000E-02   5.655233862720000E-02   5.712069907950000E-02
   5.769477164920000E-02   5.827461374410000E-02   5.886028334900000E-02
   5.945183903130000E-02   6.004933994700000E-02   6.065284584680000E-02
   6.126241708170000E-02   6.187811460930000E-02   6.250000000000000E-02
   6.312813544280001E-02   6.376258375170001E-02   6.440340837210000E-02
   6.505067338700000E-02   6.570444352349999E-02   6.636478415909999E-02
   6.703176132840000E-02   6.770544172970000E-02   6.838589273160001E-02
   6.907318237970000E-02   6.976737940369999E-02   7.046855322370001E-02
   7.117677395780000E-02   7.189211242860000E-02   7.261464017050000E-02
   7.334442943699999E-02   7.408155320750000E-02   7.482608519510001E-02
   7.557809985360001E-02   7.633767238500000E-02   7.710487874730000E-02
   7.787979566170000E-02   7.866250062060000E-02   7.945307189509999E-02
   8.025158854300000E-02   8.105813041660000E-02   8.187277817080001E-02
   8.269561327110000E-02   8.352671800160000E-02   8.436617547350000E-02
   8.521406963330000E-02   8.607048527100000E-02   8.693550802900001E-02
   8.780922441020000E-02   8.869172178710000E-02   8.958308841000000E-02
   9.048341341650000E-02   9.139278683960000E-02   9.231129961770000E-02
   9.323904360260001E-02   9.417611156960000E-02   9.512259722620001E-02
   9.607859522180000E-02   9.704420115700001E-02   9.801951159310000E-02
   9.900462406219999E-02   9.999963707610000E-02   1.010046501370000E-01
   1.020197637470000E-01   1.030450794190000E-01   1.040806996840000E-01
   1.051267281060000E-01   1.061832692890000E-01   1.072504288870000E-01
   1.083283136170000E-01   1.094170312690000E-01   1.105166907150000E-01
   1.116274019220000E-01   1.127492759620000E-01   1.138824250240000E-01
   1.150269624240000E-01   1.161830026150000E-01   1.173506612040000E-01
   1.185300549570000E-01   1.197213018130000E-01   1.209245209000000E-01
   1.221398325400000E-01   1.233673582640000E-01   1.246072208280000E-01
   1.258595442170000E-01   1.271244536650000E-01   1.284020756650000E-01
   1.296925379800000E-01   1.309959696560000E-01   1.323125010380000E-01
   1.336422637810000E-01   1.349853908620000E-01   1.363420165940000E-01
   1.377122766410000E-01   1.390963080310000E-01   1.404942491670000E-01
   1.419062398460000E-01   1.433324212670000E-01   1.447729360490000E-01
   1.462279282450000E-01   1.476975433570000E-01   1.491819283450000E-01
   1.506812316510000E-01   1.521956032060000E-01   1.537251944470000E-01
   1.552701583370000E-01   1.568306493710000E-01   1.584068236010000E-01
   1.599988386460000E-01   1.616068537070000E-01   1.632310295890000E-01
   1.648715287100000E-01   1.665285151210000E-01   1.682021545220000E-01
   1.698926142790000E-01   1.716000634390000E-01   1.733246727480000E-01
   1.750666146690000E-01   1.768260633970000E-01   1.786031948790000E-01
   1.803981868290000E-01   1.822112187490000E-01   1.840424719420000E-01
   1.858921295350000E-01   1.877603764970000E-01   1.896473996520000E-01
   1.915533877060000E-01   1.934785312580000E-01   1.954230228240000E-01
   1.973870568560000E-01   1.993708297570000E-01   2.013745399080000E-01
   2.033983876810000E-01   2.054425754610000E-01   2.075073076710000E-01
   2.095927907840000E-01   2.116992333510000E-01   2.138268460180000E-01
   2.159758415480000E-01   2.181464348410000E-01   2.203388429600000E-01
   2.225532851470000E-01   2.247899828480000E-01   2.270491597350000E-01
   2.293310417260000E-01   2.316358570130000E-01   2.339638360790000E-01
   2.363152117230000E-01   2.386902190850000E-01   2.410890956690000E-01
   2.435120813620000E-01   2.459594184670000E-01   2.484313517180000E-01
   2.509281283120000E-01   2.534499979280000E-01   2.559972127540000E-01
   2.585700275160000E-01   2.611686994950000E-01   2.637934885620000E-01
   2.664446571980000E-01   2.691224705220000E-01   2.718271963160000E-01
   2.745591050570000E-01   2.773184699380000E-01   2.801055668960000E-01
   2.829206746450000E-01   2.857640746960000E-01   2.886360513940000E-01
   2.915368919370000E-01   2.944668864120000E-01   2.974263278210000E-01
   3.004155121110000E-01   3.034347382020000E-01   3.064843080200000E-01
   3.095645265250000E-01   3.126757017400000E-01   3.158181447850000E-01
   3.189921699090000E-01   3.221980945150000E-01   3.254362391990000E-01
   3.287069277780000E-01   3.320104873240000E-01   3.353472481950000E-01
   3.387175440710000E-01   3.421217119830000E-01   3.455600923520000E-01
   3.490330290170000E-01   3.525408692770000E-01   3.560839639170000E-01
   3.596626672500000E-01   3.632773371500000E-01   3.669283350860000E-01
   3.706160261620000E-01   3.743407791490000E-01   3.781029665260000E-01
   3.819029645140000E-01   3.857411531180000E-01   3.896179161580000E-01
   3.935336413140000E-01   3.974887201630000E-01   4.014835482140000E-01
   4.055185249550000E-01   4.095940538870000E-01   4.137105425650000E-01
   4.178684026420000E-01   4.220680499080000E-01   4.263099043310000E-01
   4.305943900990000E-01   4.349219356650000E-01   4.392929737870000E-01
   4.437079415720000E-01   4.481672805220000E-01   4.526714365730000E-01
   4.572208601440000E-01   4.618160061830000E-01   4.664573342070000E-01
   4.711453083540000E-01   4.758803974240000E-01   4.806630749300000E-01
   4.854938191440000E-01   4.903731131450000E-01   4.953014448660000E-01
   5.002793071440000E-01   5.053071977690000E-01   5.103856195349999E-01
   5.155150802889999E-01   5.206960929800000E-01   5.259291757150000E-01
   5.312148518050001E-01   5.365536498240000E-01   5.419461036540000E-01
   5.473927525459999E-01   5.528941411700000E-01   5.584508196690000E-01
   5.640633437150000E-01   5.697322745650000E-01   5.754581791180000E-01
   5.812416299680000E-01   5.870832054650000E-01   5.929834897720000E-01
   5.989430729230000E-01   6.049625508799999E-01   6.110425255960000E-01
   6.171836050730000E-01   6.233864034260000E-01   6.296515409380000E-01
   6.359796441300000E-01   6.423713458150000E-01   6.488272851710000E-01
   6.553481077950000E-01   6.619344657770000E-01   6.685870177570000E-01
   6.753064289960000E-01   6.820933714400000E-01   6.889485237900000E-01
   6.958725715670000E-01   7.028662071800000E-01   7.099301300000000E-01
   7.170650464250000E-01   7.242716699510000E-01   7.315507212490000E-01
   7.389029282280000E-01   7.463290261160000E-01   7.538297575280000E-01
   7.614058725440001E-01   7.690581287820000E-01   7.767872914740001E-01
   7.845941335420000E-01   7.924794356770000E-01   8.004439864160000E-01
   8.084885822210000E-01   8.166140275580001E-01   8.248211349790000E-01
   8.331107252000000E-01   8.414836271880000E-01   8.499406782390000E-01
   8.584827240670000E-01   8.671106188830000E-01   8.758252254830000E-01
   8.846274153360000E-01   8.935180686670000E-01   9.024980745500000E-01
   9.115683309930001E-01   9.207297450280000E-01   9.299832328049999E-01
   9.393297196800000E-01   9.487701403100000E-01   9.583054387440000E-01
   9.679365685210000E-01   9.776644927620000E-01   9.874901842660000E-01
   9.974146256120000E-01   1.007438809250000E+00   1.017563737610000E+00
   1.027790423190000E+00   1.038119888670000E+00   1.048553167010000E+00
   1.059091301530000E+00   1.069735346070000E+00   1.080486365040000E+00
   1.091345433540000E+00   1.102313637490000E+00   1.113392073730000E+00
   1.124581850100000E+00   1.135884085590000E+00   1.147299910440000E+00
   1.158830466230000E+00   1.170476906040000E+00   1.182240394520000E+00
   1.194122108010000E+00   1.206123234720000E+00   1.218244974750000E+00
   1.230488540300000E+00   1.242855155720000E+00   1.255346057700000E+00
   1.267962495330000E+00   1.280705730260000E+00   1.293577036840000E+00
   1.306577702190000E+00   1.319709026410000E+00   1.332972322630000E+00
   1.346368917190000E+00   1.359900149760000E+00   1.373567373490000E+00
   1.387371955090000E+00   1.401315275050000E+00   1.415398727700000E+00
   1.429623721400000E+00   1.443991678670000E+00   1.458504036310000E+00
   1.473162245570000E+00   1.487967772280000E+00   1.502922097000000E+00
   1.518026715190000E+00   1.533283137320000E+00   1.548692889040000E+00
   1.564257511330000E+00   1.579978560690000E+00   1.595857609210000E+00
   1.611896244820000E+00   1.628096071410000E+00   1.644458708950000E+00
   1.660985793740000E+00   1.677678978490000E+00   1.694539932540000E+00
   1.711570341990000E+00   1.728771909910000E+00   1.746146356450000E+00
   1.763695419090000E+00   1.781420852740000E+00   1.799324429950000E+00
   1.817407941110000E+00   1.835673194580000E+00   1.854122016900000E+00
   1.872756252960000E+00   1.891577766210000E+00   1.910588438820000E+00
   1.929790171850000E+00   1.949184885520000E+00   1.968774519300000E+00
   1.988561032170000E+00   2.008546402800000E+00   2.028732629740000E+00
   2.049121731640000E+00   2.069715747420000E+00   2.090516736500000E+00
   2.111526778990000E+00   2.132747975920000E+00   2.154182449430000E+00
   2.175832342980000E+00   2.197699821570000E+00   2.219787071980000E+00
   2.242096302940000E+00   2.264629745400000E+00   2.287389652730000E+00
   2.310378300930000E+00   2.333597988880000E+00   2.357051038570000E+00
   2.380739795340000E+00   2.404666628060000E+00   2.428833929460000E+00
   2.453244116270000E+00   2.477899629540000E+00   2.502802934830000E+00