<UPF version="2.0.1">
  <PP_INFO>
    Generated by new atomic code, or converted to UPF format
    Author: 
    Generation date: 
    Pseudopotential type: NC
    Element: Si
    Functional:  SLA  PW   SCAN SCAN
    Suggested minimum cutoff for wavefunctions:   0. Ry
    Suggested minimum cutoff for charge density:   0. Ry
    The Pseudo was generated with a Non-Relativistic Calculation
    L component and cutoff radius for Local Potential:  0   0.0000
    Valence configuration: 
    nl pn  l   occ       Rcut    Rcut US       E pseu
    0S  1  0  2.00      0.000      0.000     0.000000
    0P  2  1  2.00      0.000      0.000     0.000000
    0D  3  2  0.00      0.000      0.000     0.000000
    Generation configuration: not available.
  </PP_INFO>
    <!-- END OF HUMAN READABLE SECTION -->
  <PP_HEADER generated="Generated by new atomic code, or converted to UPF format" author="" date="" comment="" element="Si" pseudo_type="NC" relativistic="no" is_ultrasoft="false" is_paw="false" is_coulomb="false" has_so="false" has_wfc="false" has_gipaw="false" paw_as_gipaw="false" core_correction="false" functional=" SLA  PW   SCAN SCAN" z_valence="4.00000000000000" total_psenergy="0.000000000000000E+000" wfc_cutoff="0.000000000000000E+000" rho_cutoff="0.000000000000000E+000" l_max="1" l_max_rho="0" l_local="0" mesh_size="1475" number_of_wfc="3" number_of_proj="2"/>
  <PP_MESH mesh="1475" dx="9.999999999998257E-003" xmin="-7.99999999999795" rmax="60.3971954179000" zmesh="14.0000000000000">
    <PP_R>
   2.396161627880000E-05   2.420243452600000E-05   2.444567303680000E-05
   2.469135613530000E-05   2.493950839000000E-05   2.519015461630000E-05
   2.544331987910000E-05   2.569902949500000E-05   2.595730903540000E-05
   2.621818432820000E-05   2.648168146140000E-05   2.674782678470000E-05
   2.701664691300000E-05   2.728816872860000E-05   2.756241938370000E-05
   2.783942630380000E-05   2.811921718960000E-05   2.840182002070000E-05
   2.868726305740000E-05   2.897557484430000E-05   2.926678421280000E-05
   2.956092028420000E-05   2.985801247220000E-05   3.015809048640000E-05
   3.046118433470000E-05   3.076732432680000E-05   3.107654107710000E-05
   3.138886550730000E-05   3.170432885020000E-05   3.202296265240000E-05
   3.234479877760000E-05   3.266986940960000E-05   3.299820705580000E-05
   3.332984455020000E-05   3.366481505680000E-05   3.400315207300000E-05
   3.434488943270000E-05   3.469006131000000E-05   3.503870222240000E-05
   3.539084703410000E-05   3.574653096000000E-05   3.610578956890000E-05
   3.646865878670000E-05   3.683517490090000E-05   3.720537456320000E-05
   3.757929479400000E-05   3.795697298560000E-05   3.833844690610000E-05
   3.872375470330000E-05   3.911293490820000E-05   3.950602643910000E-05
   3.990306860570000E-05   4.030410111230000E-05   4.070916406270000E-05
   4.111829796340000E-05   4.153154372810000E-05   4.194894268190000E-05
   4.237053656480000E-05   4.279636753670000E-05   4.322647818110000E-05
   4.366091150930000E-05   4.409971096500000E-05   4.454292042850000E-05
   4.499058422130000E-05   4.544274710990000E-05   4.589945431110000E-05
   4.636075149600000E-05   4.682668479470000E-05   4.729730080090000E-05
   4.777264657660000E-05   4.825276965670000E-05   4.873771805400000E-05
   4.922754026380000E-05   4.972228526860000E-05   5.022200254330000E-05
   5.072674206020000E-05   5.123655429350000E-05   5.175149022500000E-05
   5.227160134860000E-05   5.279693967590000E-05   5.332755774120000E-05
   5.386350860670000E-05   5.440484586790000E-05   5.495162365910000E-05
   5.550389665840000E-05   5.606172009360000E-05   5.662514974760000E-05
   5.719424196370000E-05   5.776905365170000E-05   5.834964229320000E-05
   5.893606594760000E-05   5.952838325760000E-05   6.012665345560000E-05
   6.073093636910000E-05   6.134129242670000E-05   6.195778266480000E-05
   6.258046873269999E-05   6.320941289970000E-05   6.384467806060000E-05
   6.448632774260001E-05   6.513442611100000E-05   6.578903797640000E-05
   6.645022880040000E-05   6.711806470260000E-05   6.779261246719999E-05
   6.847393954960001E-05   6.916211408300000E-05   6.985720488540001E-05
   7.055928146650000E-05   7.126841403460000E-05   7.198467350349999E-05
   7.270813149970000E-05   7.343886036960000E-05   7.417693318680000E-05
   7.492242375910001E-05   7.567540663630000E-05   7.643595711709999E-05
   7.720415125740000E-05   7.798006587709999E-05   7.876377856840000E-05
   7.955536770319999E-05   8.035491244109999E-05   8.116249273710000E-05
   8.197818935010001E-05   8.280208385030001E-05   8.363425862790000E-05
   8.447479690110000E-05   8.532378272439999E-05   8.618130099700000E-05
   8.704743747160000E-05   8.792227876239999E-05   8.880591235440000E-05
   8.969842661160000E-05   9.059991078620000E-05   9.151045502740001E-05
   9.243015039040000E-05   9.335908884550001E-05   9.429736328720000E-05
   9.524506754379999E-05   9.620229638659999E-05   9.716914553910000E-05
   9.814571168720001E-05   9.913209248830000E-05   1.001283865810000E-04
   1.011346935960000E-04   1.021511141650000E-04   1.031777499300000E-04
   1.042147035560000E-04   1.052620787400000E-04   1.063199802190000E-04
   1.073885137840000E-04   1.084677862910000E-04   1.095579056660000E-04
   1.106589809230000E-04   1.117711221710000E-04   1.128944406240000E-04
   1.140290486150000E-04   1.151750596060000E-04   1.163325881990000E-04
   1.175017501480000E-04   1.186826623700000E-04   1.198754429560000E-04
   1.210802111870000E-04   1.222970875400000E-04   1.235261937040000E-04
   1.247676525900000E-04   1.260215883450000E-04   1.272881263640000E-04
   1.285673933020000E-04   1.298595170860000E-04   1.311646269310000E-04
   1.324828533470000E-04   1.338143281590000E-04   1.351591845150000E-04
   1.365175569020000E-04   1.378895811590000E-04   1.392753944890000E-04
   1.406751354740000E-04   1.420889440900000E-04   1.435169617190000E-04
   1.449593311640000E-04   1.464161966630000E-04   1.478877039030000E-04
   1.493740000370000E-04   1.508752336950000E-04   1.523915550030000E-04
   1.539231155930000E-04   1.554700686230000E-04   1.570325687890000E-04
   1.586107723430000E-04   1.602048371060000E-04   1.618149224870000E-04
   1.634411894940000E-04   1.650838007570000E-04   1.667429205380000E-04
   1.684187147490000E-04   1.701113509730000E-04   1.718209984730000E-04
   1.735478282160000E-04   1.752920128870000E-04   1.770537269050000E-04
   1.788331464430000E-04   1.806304494450000E-04   1.824458156420000E-04
   1.842794265730000E-04   1.861314656010000E-04   1.880021179300000E-04
   1.898915706270000E-04   1.918000126400000E-04   1.937276348130000E-04
   1.956746299120000E-04   1.976411926370000E-04   1.996275196450000E-04
   2.016338095730000E-04   2.036602630490000E-04   2.057070827210000E-04
   2.077744732720000E-04   2.098626414450000E-04   2.119717960560000E-04
   2.141021480230000E-04   2.162539103840000E-04   2.184272983160000E-04
   2.206225291600000E-04   2.228398224400000E-04   2.250793998890000E-04
   2.273414854650000E-04   2.296263053790000E-04   2.319340881150000E-04
   2.342650644530000E-04   2.366194674930000E-04   2.389975326770000E-04
   2.413994978130000E-04   2.438256031000000E-04   2.462760911500000E-04
   2.487512070150000E-04   2.512511982080000E-04   2.537763147300000E-04
   2.563268090950000E-04   2.589029363550000E-04   2.615049541240000E-04
   2.641331226060000E-04   2.667877046210000E-04   2.694689656280000E-04
   2.721771737570000E-04   2.749125998290000E-04   2.776755173910000E-04
   2.804662027360000E-04   2.832849349350000E-04   2.861319958640000E-04
   2.890076702300000E-04   2.919122456050000E-04   2.948460124470000E-04
   2.978092641360000E-04   3.008022970000000E-04   3.038254103440000E-04
   3.068789064820000E-04   3.099630907670000E-04   3.130782716190000E-04
   3.162247605590000E-04   3.194028722390000E-04   3.226129244720000E-04
   3.258552382670000E-04   3.291301378570000E-04   3.324379507350000E-04
   3.357790076850000E-04   3.391536428150000E-04   3.425621935930000E-04
   3.460050008750000E-04   3.494824089460000E-04   3.529947655490000E-04
   3.565424219220000E-04   3.601257328350000E-04   3.637450566210000E-04
   3.674007552160000E-04   3.710931941930000E-04   3.748227427990000E-04
   3.785897739910000E-04   3.823946644760000E-04   3.862377947460000E-04
   3.901195491170000E-04   3.940403157690000E-04   3.980004867800000E-04
   4.020004581720000E-04   4.060406299440000E-04   4.101214061180000E-04
   4.142431947740000E-04   4.184064080950000E-04   4.226114624060000E-04
   4.268587782150000E-04   4.311487802570000E-04   4.354818975370000E-04
   4.398585633690000E-04   4.442792154240000E-04   4.487442957720000E-04
   4.532542509220000E-04   4.578095318750000E-04   4.624105941640000E-04
   4.670578978960000E-04   4.717519078080000E-04   4.764930933040000E-04
   4.812819285060000E-04   4.861188923020000E-04   4.910044683930000E-04
   4.959391453390000E-04   5.009234166130000E-04   5.059577806470000E-04
   5.110427408800000E-04   5.161788058130000E-04   5.213664890560000E-04
   5.266063093830000E-04   5.318987907800000E-04   5.372444625000000E-04
   5.426438591130000E-04   5.480975205640000E-04   5.536059922240000E-04
   5.591698249450000E-04   5.647895751140000E-04   5.704658047110000E-04
   5.761990813640000E-04   5.819899784060000E-04   5.878390749300000E-04
   5.937469558520000E-04   5.997142119640000E-04   6.057414399970000E-04
   6.118292426780000E-04   6.179782287940000E-04   6.241890132480000E-04
   6.304622171230000E-04   6.367984677460000E-04   6.431983987450000E-04
   6.496626501210000E-04   6.561918683030000E-04   6.627867062190000E-04
   6.694478233580000E-04   6.761758858360000E-04   6.829715664670000E-04
   6.898355448240000E-04   6.967685073100000E-04   7.037711472280000E-04
   7.108441648460000E-04   7.179882674740000E-04   7.252041695260000E-04
   7.324925925999999E-04   7.398542655440000E-04   7.472899245300000E-04
   7.548003131320000E-04   7.623861823940000E-04   7.700482909100000E-04
   7.777874048970000E-04   7.856042982719999E-04   7.934997527320000E-04
   8.014745578280000E-04   8.095295110479999E-04   8.176654178930000E-04
   8.258830919620000E-04   8.341833550280000E-04   8.425670371250000E-04
   8.510349766280000E-04   8.595880203370000E-04   8.682270235649999E-04
   8.769528502190000E-04   8.857663728890000E-04   8.946684729340000E-04
   9.036600405720000E-04   9.127419749670000E-04   9.219151843199999E-04
   9.311805859600000E-04   9.405391064340000E-04   9.499916816030000E-04
   9.595392567319999E-04   9.691827865860000E-04   9.789232355260000E-04
   9.887615776060000E-04   9.986987966670001E-04   1.008735886440000E-03
   1.018873850640000E-03   1.029113703080000E-03   1.039456467740000E-03
   1.049903178920000E-03   1.060454881290000E-03   1.071112630030000E-03
   1.081877490930000E-03   1.092750540480000E-03   1.103732865990000E-03
   1.114825565710000E-03   1.126029748920000E-03   1.137346536040000E-03
   1.148777058760000E-03   1.160322460140000E-03   1.171983894740000E-03
   1.183762528700000E-03   1.195659539900000E-03   1.207676118050000E-03
   1.219813464820000E-03   1.232072793950000E-03   1.244455331390000E-03
   1.256962315400000E-03   1.269594996690000E-03   1.282354638540000E-03
   1.295242516910000E-03   1.308259920620000E-03   1.321408151420000E-03
   1.334688524120000E-03   1.348102366800000E-03   1.361651020830000E-03
   1.375335841100000E-03   1.389158196100000E-03   1.403119468080000E-03
   1.417221053170000E-03   1.431464361550000E-03   1.445850817560000E-03
   1.460381859850000E-03   1.475058941550000E-03   1.489883530370000E-03
   1.504857108790000E-03   1.519981174170000E-03   1.535257238930000E-03
   1.550686830700000E-03   1.566271492450000E-03   1.582012782650000E-03
   1.597912275440000E-03   1.613971560790000E-03   1.630192244650000E-03
   1.646575949090000E-03   1.663124312490000E-03   1.679838989710000E-03
   1.696721652240000E-03   1.713773988340000E-03   1.730997703260000E-03
   1.748394519400000E-03   1.765966176450000E-03   1.783714431590000E-03
   1.801641059660000E-03   1.819747853330000E-03   1.838036623310000E-03
   1.856509198480000E-03   1.875167426120000E-03   1.894013172060000E-03
   1.913048320900000E-03   1.932274776170000E-03   1.951694460520000E-03
   1.971309315950000E-03   1.991121303950000E-03   2.011132405740000E-03
   2.031344622440000E-03   2.051759975300000E-03   2.072380505870000E-03
   2.093208276220000E-03   2.114245369140000E-03   2.135493888350000E-03
   2.156955958740000E-03   2.178633726520000E-03   2.200529359480000E-03
   2.222645047220000E-03   2.244983001310000E-03   2.267545455580000E-03
   2.290334666280000E-03   2.313352912350000E-03   2.336602495640000E-03
   2.360085741130000E-03   2.383804997170000E-03   2.407762635680000E-03
   2.431961052470000E-03   2.456402667390000E-03   2.481089924620000E-03
   2.506025292920000E-03   2.531211265830000E-03   2.556650361980000E-03
   2.582345125290000E-03   2.608298125270000E-03   2.634511957230000E-03
   2.660989242590000E-03   2.687732629080000E-03   2.714744791080000E-03
   2.742028429830000E-03   2.769586273690000E-03   2.797421078500000E-03
   2.825535627740000E-03   2.853932732900000E-03   2.882615233720000E-03
   2.911585998450000E-03   2.940847924220000E-03   2.970403937230000E-03
   3.000256993100000E-03   3.030410077180000E-03   3.060866204790000E-03
   3.091628421570000E-03   3.122699803770000E-03   3.154083458550000E-03
   3.185782524310000E-03   3.217800170970000E-03   3.250139600330000E-03
   3.282804046360000E-03   3.315796775530000E-03   3.349121087140000E-03
   3.382780313650000E-03   3.416777821010000E-03   3.451117009000000E-03
   3.485801311570000E-03   3.520834197180000E-03   3.556219169130000E-03
   3.591959765970000E-03   3.628059561780000E-03   3.664522166570000E-03
   3.701351226620000E-03   3.738550424890000E-03   3.776123481310000E-03
   3.814074153230000E-03   3.852406235740000E-03   3.891123562080000E-03
   3.930230004030000E-03   3.969729472250000E-03   4.009625916720000E-03
   4.049923327130000E-03   4.090625733250000E-03   4.131737205350000E-03
   4.173261854610000E-03   4.215203833530000E-03   4.257567336350000E-03
   4.300356599460000E-03   4.343575901800000E-03   4.387229565360000E-03
   4.431321955530000E-03   4.475857481580000E-03   4.520840597120000E-03
   4.566275800480000E-03   4.612167635230000E-03   4.658520690580000E-03
   4.705339601890000E-03   4.752629051070000E-03   4.800393767120000E-03
   4.848638526550000E-03   4.897368153880000E-03   4.946587522100000E-03
   4.996301553190000E-03   5.046515218600000E-03   5.097233539740000E-03
   5.148461588480000E-03   5.200204487670000E-03   5.252467411650000E-03
   5.305255586740000E-03   5.358574291810000E-03   5.412428858770000E-03
   5.466824673140000E-03   5.521767174520000E-03   5.577261857230000E-03
   5.633314270760000E-03   5.689930020420000E-03   5.747114767820000E-03
   5.804874231490000E-03   5.863214187420000E-03   5.922140469660000E-03
   5.981658970870000E-03   6.041775642970000E-03   6.102496497670000E-03
   6.163827607100000E-03   6.225775104430000E-03   6.288345184460000E-03
   6.351544104240000E-03   6.415378183730000E-03   6.479853806390000E-03
   6.544977419820000E-03   6.610755536450000E-03   6.677194734150000E-03
   6.744301656880000E-03   6.812083015400000E-03   6.880545587890000E-03
   6.949696220680000E-03   7.019541828880000E-03   7.090089397120000E-03
   7.161345980200000E-03   7.233318703850000E-03   7.306014765400000E-03
   7.379441434510000E-03   7.453606053910000E-03   7.528516040130000E-03
   7.604178884230000E-03   7.680602152560000E-03   7.757793487500000E-03
   7.835760608250000E-03   7.914511311600000E-03   7.994053472670000E-03
   8.074395045750001E-03   8.155544065060000E-03   8.237508645580000E-03
   8.320296983820001E-03   8.403917358700001E-03   8.488378132309999E-03
   8.573687750820000E-03   8.659854745240000E-03   8.746887732360001E-03
   8.834795415530000E-03   8.923586585610000E-03   9.013270121790000E-03
   9.103854992490000E-03   9.195350256270000E-03   9.287765062740001E-03
   9.381108653460001E-03   9.475390362870000E-03   9.570619619199999E-03
   9.666805945470000E-03   9.763958960390000E-03   9.862088379350001E-03
   9.961204015359999E-03   1.006131578010000E-02   1.016243368480000E-02
   1.026456784130000E-02   1.036772846310000E-02   1.047192586650000E-02
   1.057717047110000E-02   1.068347280160000E-02   1.079084348830000E-02
   1.089929326830000E-02   1.100883298680000E-02   1.111947359770000E-02
   1.123122616530000E-02   1.134410186480000E-02   1.145811198390000E-02
   1.157326792380000E-02   1.168958120020000E-02   1.180706344440000E-02
   1.192572640480000E-02   1.204558194780000E-02   1.216664205900000E-02
   1.228891884450000E-02   1.241242453220000E-02   1.253717147260000E-02
   1.266317214070000E-02   1.279043913650000E-02   1.291898518690000E-02
   1.304882314660000E-02   1.317996599950000E-02   1.331242686000000E-02
   1.344621897420000E-02   1.358135572150000E-02   1.371785061580000E-02
   1.385571730650000E-02   1.399496958050000E-02   1.413562136310000E-02
   1.427768671970000E-02   1.442117985680000E-02   1.456611512390000E-02
   1.471250701460000E-02   1.486037016840000E-02   1.500971937150000E-02
   1.516056955910000E-02   1.531293581620000E-02   1.546683337970000E-02
   1.562227763940000E-02   1.577928414000000E-02   1.593786858200000E-02
   1.609804682420000E-02   1.625983488460000E-02   1.642324894190000E-02
   1.658830533780000E-02   1.675502057810000E-02   1.692341133440000E-02
   1.709349444600000E-02   1.726528692120000E-02   1.743880593950000E-02
   1.761406885300000E-02   1.779109318800000E-02   1.796989664710000E-02
   1.815049711090000E-02   1.833291263950000E-02   1.851716147470000E-02
   1.870326204150000E-02   1.889123295000000E-02   1.908109299760000E-02
   1.927286117030000E-02   1.946655664530000E-02   1.966219879210000E-02
   1.985980717520000E-02   2.005940155560000E-02   2.026100189280000E-02
   2.046462834720000E-02   2.067030128140000E-02   2.087804126290000E-02
   2.108786906600000E-02   2.129980567360000E-02   2.151387227940000E-02
   2.173009029050000E-02   2.194848132870000E-02   2.216906723320000E-02
   2.239187006300000E-02   2.261691209850000E-02   2.284421584400000E-02
   2.307380403020000E-02   2.330569961590000E-02   2.353992579110000E-02
   2.377650597840000E-02   2.401546383620000E-02   2.425682326040000E-02
   2.450060838710000E-02   2.474684359500000E-02   2.499555350790000E-02
   2.524676299710000E-02   2.550049718350000E-02   2.575678144090000E-02
   2.601564139800000E-02   2.627710294080000E-02   2.654119221590000E-02
   2.680793563220000E-02   2.707735986450000E-02   2.734949185540000E-02
   2.762435881820000E-02   2.790198823990000E-02   2.818240788370000E-02
   2.846564579180000E-02   2.875173028810000E-02   2.904068998150000E-02
   2.933255376800000E-02   2.962735083440000E-02   2.992511066050000E-02
   3.022586302270000E-02   3.052963799630000E-02   3.083646595920000E-02
   3.114637759440000E-02   3.145940389330000E-02   3.177557615880000E-02
   3.209492600840000E-02   3.241748537730000E-02   3.274328652180000E-02
   3.307236202220000E-02   3.340474478640000E-02   3.374046805290000E-02
   3.407956539440000E-02   3.442207072070000E-02   3.476801828290000E-02
   3.511744267580000E-02   3.547037884220000E-02   3.582686207610000E-02
   3.618692802610000E-02   3.655061269900000E-02   3.691795246370000E-02
   3.728898405440000E-02   3.766374457450000E-02   3.804227150050000E-02
   3.842460268530000E-02   3.881077636250000E-02   3.920083114960000E-02
   3.959480605250000E-02   3.999274046900000E-02   4.039467419280000E-02
   4.080064741780000E-02   4.121070074150000E-02   4.162487516960000E-02
   4.204321211990000E-02   4.246575342640000E-02   4.289254134370000E-02
   4.332361855090000E-02   4.375902815600000E-02   4.419881370040000E-02
   4.464301916310000E-02   4.509168896480000E-02   4.554486797300000E-02
   4.600260150590000E-02   4.646493533740000E-02   4.693191570110000E-02
   4.740358929550000E-02   4.788000328830000E-02   4.836120532130000E-02
   4.884724351520000E-02   4.933816647410000E-02   4.983402329080000E-02
   5.033486355130000E-02   5.084073734020000E-02   5.135169524510000E-02
   5.186778836240000E-02   5.238906830170000E-02   5.291558719160000E-02
   5.344739768420000E-02   5.398455296110000E-02   5.452710673830000E-02
   5.507511327170000E-02   5.562862736220000E-02   5.618770436190000E-02
   5.675240017880000E-02   5.732277128300000E-02   5.789887471220000E-02
   5.848076807700000E-02   5.906850956740000E-02   5.966215795790000E-02
   6.026177261400000E-02   6.086741349760000E-02   6.147914117320000E-02
   6.209701681420000E-02   6.272110220860000E-02   6.335145976550000E-02
   6.398815252120001E-02   6.463124414540000E-02   6.528079894790000E-02
   6.593688188480000E-02   6.659955856470000E-02   6.726889525599999E-02
   6.794495889290000E-02   6.862781708229999E-02   6.931753811060000E-02
   7.001419095050000E-02   7.071784526780001E-02   7.142857142860000E-02
   7.214644050600000E-02   7.287152428760001E-02   7.360389528239999E-02
   7.434362672800000E-02   7.509079259830000E-02   7.584546761039999E-02
   7.660772723240000E-02   7.737764769110000E-02   7.815530597890000E-02
   7.894077986250000E-02   7.973414788990001E-02   8.053548939850000E-02
   8.134488452320000E-02   8.216241420410000E-02   8.298816019490000E-02
   8.382220507080000E-02   8.466463223720000E-02   8.551552593730000E-02
   8.637497126120000E-02   8.724305415430000E-02   8.811986142550000E-02
   8.900548075620000E-02   8.990000070920000E-02   9.080351073720000E-02
   9.171610119199999E-02   9.263786333330000E-02   9.356888933809999E-02
   9.450927230980000E-02   9.545910628750000E-02   9.641848625540000E-02
   9.738750815230000E-02   9.836626888110001E-02   9.935486631880000E-02
   1.003533993260000E-01   1.013619677570000E-01   1.023806724690000E-01
   1.034096153330000E-01   1.044488992450000E-01   1.054986281340000E-01
   1.065589069740000E-01   1.076298417940000E-01   1.087115396870000E-01
   1.098041088250000E-01   1.109076584650000E-01   1.120222989640000E-01
   1.131481417850000E-01   1.142852995160000E-01   1.154338858710000E-01
   1.165940157110000E-01   1.177658050500000E-01   1.189493710680000E-01
   1.201448321210000E-01   1.213523077580000E-01   1.225719187270000E-01
   1.238037869910000E-01   1.250480357350000E-01   1.263047893880000E-01
   1.275741736250000E-01   1.288563153860000E-01   1.301513428850000E-01
   1.314593856270000E-01   1.327805744180000E-01   1.341150413760000E-01
   1.354629199500000E-01   1.368243449300000E-01   1.381994524570000E-01
   1.395883800450000E-01   1.409912665880000E-01   1.424082523750000E-01
   1.438394791050000E-01   1.452850899030000E-01   1.467452293320000E-01
   1.482200434050000E-01   1.497096796070000E-01   1.512142869010000E-01
   1.527340157500000E-01   1.542690181270000E-01   1.558194475360000E-01
   1.573854590180000E-01   1.589672091780000E-01   1.605648561910000E-01
   1.621785598240000E-01   1.638084814470000E-01   1.654547840560000E-01
   1.671176322800000E-01   1.687971924080000E-01   1.704936323950000E-01
   1.722071218870000E-01   1.739378322350000E-01   1.756859365110000E-01
   1.774516095270000E-01   1.792350278530000E-01   1.810363698300000E-01
   1.828558155950000E-01   1.846935470940000E-01   1.865497481020000E-01
   1.884246042400000E-01   1.903183029950000E-01   1.922310337390000E-01
   1.941629877470000E-01   1.961143582150000E-01   1.980853402830000E-01
   2.000761310500000E-01   2.020869295970000E-01   2.041179370050000E-01
   2.061693563760000E-01   2.082413928550000E-01   2.103342536480000E-01
   2.124481480400000E-01   2.145832874250000E-01   2.167398853170000E-01
   2.189181573780000E-01   2.211183214370000E-01   2.233405975130000E-01
   2.255852078350000E-01   2.278523768650000E-01   2.301423313230000E-01
   2.324553002060000E-01   2.347915148130000E-01   2.371512087670000E-01
   2.395346180390000E-01   2.419419809730000E-01   2.443735383060000E-01
   2.468295331970000E-01   2.493102112470000E-01   2.518158205260000E-01
   2.543466115970000E-01   2.569028375410000E-01   2.594847539820000E-01
   2.620926191160000E-01   2.647266937290000E-01   2.673872412330000E-01
   2.700745276830000E-01   2.727888218120000E-01   2.755303950500000E-01
   2.782995215570000E-01   2.810964782480000E-01   2.839215448210000E-01
   2.867750037850000E-01   2.896571404890000E-01   2.925682431480000E-01
   2.955086028750000E-01   2.984785137090000E-01   3.014782726430000E-01
   3.045081796550000E-01   3.075685377390000E-01   3.106596529330000E-01
   3.137818343510000E-01   3.169353942150000E-01   3.201206478810000E-01
   3.233379138800000E-01   3.265875139390000E-01   3.298697730210000E-01
   3.331850193560000E-01   3.365335844710000E-01   3.399158032240000E-01
   3.433320138410000E-01   3.467825579460000E-01   3.502677805950000E-01
   3.537880303140000E-01   3.573436591310000E-01   3.609350226120000E-01
   3.645624798950000E-01   3.682263937310000E-01   3.719271305130000E-01
   3.756650603180000E-01   3.794405569420000E-01   3.832539979370000E-01
   3.871057646520000E-01   3.909962422660000E-01   3.949258198300000E-01
   3.988948903050000E-01   4.029038506020000E-01   4.069531016190000E-01
   4.110430482860000E-01   4.151740996000000E-01   4.193466686700000E-01
   4.235611727570000E-01   4.278180333130000E-01   4.321176760290000E-01
   4.364605308740000E-01   4.408470321350000E-01   4.452776184660000E-01
   4.497527329300000E-01   4.542728230430000E-01   4.588383408160000E-01
   4.634497428060000E-01   4.681074901570000E-01   4.728120486460000E-01
   4.775638887340000E-01   4.823634856090000E-01   4.872113192350000E-01
   4.921078743990000E-01   4.970536407600000E-01   5.020491128990000E-01
   5.070947903680000E-01   5.121911777390000E-01   5.173387846540000E-01
   5.225381258789999E-01   5.277897213520000E-01   5.330940962370000E-01
   5.384517809760000E-01   5.438633113410000E-01   5.493292284910000E-01
   5.548500790220000E-01   5.604264150229999E-01   5.660587941320000E-01
   5.717477795930000E-01   5.774939403080001E-01   5.832978508980000E-01
   5.891600917590000E-01   5.950812491210000E-01   6.010619151030000E-01
   6.071026877780000E-01   6.132041712270000E-01   6.193669756050000E-01
   6.255917171960000E-01   6.318790184800001E-01   6.382295081930000E-01
   6.446438213880000E-01   6.511225995030000E-01   6.576664904200000E-01
   6.642761485350001E-01   6.709522348169999E-01   6.776954168829999E-01
   6.845063690550000E-01   6.913857724340000E-01   6.983343149660000E-01
   7.053526915120000E-01   7.124416039150000E-01   7.196017610720000E-01
   7.268338790050000E-01   7.341386809320000E-01   7.415168973380000E-01
   7.489692660520000E-01   7.564965323170000E-01   7.640994488650000E-01
   7.717787759950000E-01   7.795352816459999E-01   7.873697414740000E-01
   7.952829389329999E-01   8.032756653490000E-01   8.113487200000000E-01
   8.195029102000000E-01   8.277390513730000E-01   8.360579671410000E-01
   8.444604894030000E-01   8.529474584180000E-01   8.615197228890000E-01
   8.701781400500000E-01   8.789235757510000E-01   8.877569045410000E-01
   8.966790097620000E-01   9.056907836310000E-01   9.147931273330000E-01
   9.239869511100000E-01   9.332731743520000E-01   9.426527256900000E-01
   9.521265430850000E-01   9.616955739290000E-01   9.713607751310001E-01
   9.811231132200000E-01   9.909835644380000E-01   1.000943114840000E+00
   1.011002760380000E+00   1.021163507050000E+00   1.031426370910000E+00
   1.041792378280000E+00   1.052262565750000E+00   1.062837980350000E+00
   1.073519679630000E+00   1.084308731780000E+00   1.095206215710000E+00
   1.106213221170000E+00   1.117330848870000E+00   1.128560210590000E+00
   1.139902429270000E+00   1.151358639140000E+00   1.162929985840000E+00
   1.174617626510000E+00   1.186422729910000E+00   1.198346476580000E+00
   1.210390058900000E+00   1.222554681220000E+00   1.234841560040000E+00
   1.247251924040000E+00   1.259787014270000E+00   1.272448084260000E+00
   1.285236400110000E+00   1.298153240670000E+00   1.311199897640000E+00
   1.324377675700000E+00   1.337687892620000E+00   1.351131879450000E+00
   1.364710980590000E+00   1.378426553960000E+00   1.392279971150000E+00
   1.406272617480000E+00   1.420405892250000E+00   1.434681208800000E+00
   1.449099994660000E+00   1.463663691730000E+00   1.478373756380000E+00
   1.493231659650000E+00   1.508238887320000E+00   1.523396940140000E+00
   1.538707333930000E+00   1.554171599730000E+00   1.569791283980000E+00
   1.585567948670000E+00   1.601503171480000E+00   1.617598545940000E+00
   1.633855681600000E+00   1.650276204190000E+00   1.666861755780000E+00
   1.683613994930000E+00   1.700534596890000E+00   1.717625253720000E+00
   1.734887674510000E+00   1.752323585510000E+00   1.769934730330000E+00
   1.787722870100000E+00   1.805689783640000E+00   1.823837267670000E+00
   1.842167136940000E+00   1.860681224470000E+00   1.879381381660000E+00
   1.898269478560000E+00   1.917347403990000E+00   1.936617065760000E+00
   1.956080390850000E+00   1.975739325610000E+00   1.995595835950000E+00
   2.015651907530000E+00   2.035909545980000E+00   2.056370777090000E+00
   2.077037646990000E+00   2.097912222380000E+00   2.118996590740000E+00
   2.140292860530000E+00   2.161803161390000E+00   2.183529644360000E+00
   2.205474482120000E+00   2.227639869160000E+00   2.250028022050000E+00
   2.272641179620000E+00   2.295481603200000E+00   2.318551576850000E+00
   2.341853407590000E+00   2.365389425620000E+00   2.389161984570000E+00
   2.413173461700000E+00   2.437426258200000E+00   2.461922799350000E+00
   2.486665534830000E+00   2.511656938940000E+00   2.536899510830000E+00
   2.562395774790000E+00   2.588148280460000E+00   2.614159603120000E+00
   2.640432343920000E+00   2.666969130150000E+00   2.693772615510000E+00
   2.720845480390000E+00   2.748190432070000E+00   2.775810205100000E+00
   2.803707561450000E+00   2.831885290900000E+00   2.860346211230000E+00